# mpiexec: RDMA network found -- using rdma+shared memory (I_MPI_DEVICE=rdssm:ofa-v2-mlx4_0-1u)
# mpiexec: full path to program is /apps/espresso/5.3.0/bin/projwfc.x
# mpiexec: program arguments are:
# mpiexec: 8 ranks allocated via PBS select
# mpiexec: 1 OpenMP threads / rank allocated by PBS select
# mpiexec: Job has shared use of the allocated nodes. Disabling process-pinning
# mpiexec: machinefile configured as:
r3i1n10.cx2.hpc.ic.ac.uk:8
#
# mpiexec: Checking all nodes are ONLINE:
# mpiexec: All nodes appear ONLINE
# mpiexec: launch started at Sat Oct 19 11:04:25 BST 2019
# mpiexec: launching program...
# /apps/espresso/5.3.0/bin/projwfc.x
(r3i1n10.cx2.hpc.ic.ac.uk:0,1,2,3,4,5,6,7)

     Program PROJWFC v.5.3.0 (svn rev. 11974) starts on 19Oct2019 at 11: 4:25

     This program is part of the open-source Quantum ESPRESSO suite
     for quantum simulation of materials; please cite
         "P. Giannozzi et al., J. Phys.:Condens. Matter 21 395502 (2009);
          URL http://www.quantum-espresso.org",
     in publications or presentations arising from this work. More details at
     http://www.quantum-espresso.org/quote

     Parallel version (MPI & OpenMP), running on       8 processor cores
     Number of MPI processes:                 8
     Threads/MPI process:                     1
     R & G space division:  proc/nbgrp/npool/nimage =       8

     Reading data from directory:
     ./out/aiida.save

   Info: using nr1, nr2, nr3 values from input

   Info: using nr1, nr2, nr3 values from input

     IMPORTANT: XC functional enforced from input :
     Exchange-correlation      =  SLA  PW   PBX  PBC ( 1  4  3  4 0 0)
     Any further DFT definition will be discarded
     Please, verify this is what you really want

               file Si.pbe-n-kjpaw_psl.1.0.0.UPF: wavefunction(s)  3S 3P renormalized

     Parallelization info
     --------------------
     sticks:   dense  smooth     PW     G-vecs:    dense   smooth      PW
     Min         107      54     18                 2110      744     142
     Max         108      55     20                 2113      758     143
     Sum         859     433    151                16889     5985    1139


     Gaussian broadening (read from input): ngauss,degauss=   1    0.020000


     Calling projwave ....

     Atomic states used for projection
     (read from pseudopotential files):

     state #   1: atom   1 (Si1 ), wfc  1 (l=0 m= 1)
     state #   2: atom   1 (Si1 ), wfc  2 (l=1 m= 1)
     state #   3: atom   1 (Si1 ), wfc  2 (l=1 m= 2)
     state #   4: atom   1 (Si1 ), wfc  2 (l=1 m= 3)
     state #   5: atom   2 (Si1 ), wfc  1 (l=0 m= 1)
     state #   6: atom   2 (Si1 ), wfc  2 (l=1 m= 1)
     state #   7: atom   2 (Si1 ), wfc  2 (l=1 m= 2)
     state #   8: atom   2 (Si1 ), wfc  2 (l=1 m= 3)

 k =   0.0000000000  0.0000000000  0.0000000000
==== e(   1) =    -5.51537 eV ====
     psi = 0.498*[#   1]+0.498*[#   5]+
    |psi|^2 = 0.997
==== e(   2) =     6.50822 eV ====
     psi = 0.446*[#   4]+0.446*[#   8]+0.034*[#   3]+0.034*[#   7]+
    |psi|^2 = 0.961
==== e(   3) =     6.50822 eV ====
     psi = 0.444*[#   3]+0.444*[#   7]+0.034*[#   4]+0.034*[#   8]+0.002*[#   2]+
          +0.002*[#   6]+
    |psi|^2 = 0.961
==== e(   4) =     6.50822 eV ====
     psi = 0.478*[#   2]+0.478*[#   6]+0.002*[#   3]+0.002*[#   7]+
    |psi|^2 = 0.961
==== e(   5) =     8.94955 eV ====
     psi = 0.451*[#   3]+0.451*[#   7]+0.031*[#   4]+0.031*[#   8]+
    |psi|^2 = 0.964
==== e(   6) =     8.94955 eV ====
     psi = 0.375*[#   4]+0.375*[#   8]+0.081*[#   2]+0.081*[#   6]+0.026*[#   3]+
          +0.026*[#   7]+
    |psi|^2 = 0.964
==== e(   7) =     8.94955 eV ====
     psi = 0.401*[#   2]+0.401*[#   6]+0.076*[#   4]+0.076*[#   8]+0.005*[#   3]+
          +0.005*[#   7]+
    |psi|^2 = 0.964
==== e(   8) =     9.89418 eV ====
     psi = 0.494*[#   1]+0.494*[#   5]+
    |psi|^2 = 0.987

 k =  -0.1767766953  0.1767766953  0.1767766953
==== e(   1) =    -4.71157 eV ====
     psi = 0.382*[#   1]+0.382*[#   5]+0.039*[#   2]+0.039*[#   3]+0.039*[#   4]+
          +0.039*[#   6]+0.039*[#   7]+0.039*[#   8]+
    |psi|^2 = 0.996
==== e(   2) =     2.53385 eV ====
     psi = 0.140*[#   1]+0.140*[#   5]+0.118*[#   2]+0.118*[#   3]+0.118*[#   4]+
          +0.118*[#   6]+0.118*[#   7]+0.118*[#   8]+
    |psi|^2 = 0.986
==== e(   3) =     5.72264 eV ====
     psi = 0.245*[#   3]+0.245*[#   7]+0.245*[#   4]+0.245*[#   8]+
    |psi|^2 = 0.981
==== e(   4) =     5.72264 eV ====
     psi = 0.327*[#   2]+0.327*[#   6]+0.082*[#   4]+0.082*[#   8]+0.082*[#   3]+
          +0.082*[#   7]+
    |psi|^2 = 0.981
==== e(   5) =     8.48361 eV ====
     psi = 0.265*[#   1]+0.265*[#   5]+0.069*[#   2]+0.069*[#   3]+0.069*[#   4]+
          +0.069*[#   6]+0.069*[#   7]+0.069*[#   8]+
    |psi|^2 = 0.942
==== e(   6) =     9.90246 eV ====
     psi = 0.244*[#   3]+0.244*[#   7]+0.194*[#   4]+0.194*[#   8]+0.003*[#   2]+
          +0.003*[#   6]+
    |psi|^2 = 0.881
==== e(   7) =     9.90246 eV ====
     psi = 0.291*[#   2]+0.291*[#   6]+0.100*[#   4]+0.100*[#   8]+0.050*[#   3]+
          +0.050*[#   7]+
    |psi|^2 = 0.881
==== e(   8) =    13.43540 eV ====
     psi = 0.179*[#   1]+0.179*[#   5]+0.088*[#   2]+0.088*[#   7]+0.088*[#   4]+
          +0.088*[#   8]+0.088*[#   6]+0.088*[#   3]+
    |psi|^2 = 0.886

 k =   0.3535533906 -0.3535533906 -0.3535533906
==== e(   1) =    -3.16337 eV ====
     psi = 0.386*[#   1]+0.386*[#   5]+0.038*[#   2]+0.038*[#   3]+0.038*[#   4]+
          +0.038*[#   6]+0.038*[#   7]+0.038*[#   8]+
    |psi|^2 = 0.997
==== e(   2) =    -0.53527 eV ====
     psi = 0.126*[#   2]+0.126*[#   3]+0.126*[#   4]+0.126*[#   6]+0.126*[#   7]+
          +0.126*[#   8]+0.116*[#   1]+0.116*[#   5]+
    |psi|^2 = 0.988
==== e(   3) =     5.27886 eV ====
     psi = 0.276*[#   3]+0.276*[#   7]+0.179*[#   4]+0.179*[#   8]+0.039*[#   2]+
          +0.039*[#   6]+
    |psi|^2 = 0.989
==== e(   4) =     5.27886 eV ====
     psi = 0.290*[#   2]+0.290*[#   6]+0.150*[#   4]+0.150*[#   8]+0.054*[#   3]+
          +0.054*[#   7]+
    |psi|^2 = 0.989
==== e(   5) =     8.00212 eV ====
     psi = 0.342*[#   1]+0.342*[#   5]+0.039*[#   2]+0.039*[#   3]+0.039*[#   4]+
          +0.039*[#   6]+0.039*[#   7]+0.039*[#   8]+
    |psi|^2 = 0.918
==== e(   6) =     9.71048 eV ====
     psi = 0.213*[#   3]+0.213*[#   7]+0.163*[#   4]+0.163*[#   8]+0.005*[#   2]+
          +0.005*[#   6]+
    |psi|^2 = 0.762
==== e(   7) =     9.71048 eV ====
     psi = 0.249*[#   2]+0.249*[#   6]+0.091*[#   4]+0.091*[#   8]+0.041*[#   3]+
          +0.041*[#   7]+
    |psi|^2 = 0.762
==== e(   8) =    14.15700 eV ====
     psi = 0.022*[#   2]+0.022*[#   3]+0.022*[#   4]+0.022*[#   6]+0.022*[#   7]+
          +0.022*[#   8]+0.018*[#   1]+0.018*[#   5]+
    |psi|^2 = 0.167

 k =   0.1767766953 -0.1767766953  0.1767766953
==== e(   1) =    -4.71157 eV ====
     psi = 0.382*[#   1]+0.382*[#   5]+0.039*[#   2]+0.039*[#   3]+0.039*[#   4]+
          +0.039*[#   6]+0.039*[#   7]+0.039*[#   8]+
    |psi|^2 = 0.996
==== e(   2) =     2.53385 eV ====
     psi = 0.140*[#   1]+0.140*[#   5]+0.118*[#   2]+0.118*[#   3]+0.118*[#   4]+
          +0.118*[#   6]+0.118*[#   7]+0.118*[#   8]+
    |psi|^2 = 0.986
==== e(   3) =     5.72264 eV ====
     psi = 0.245*[#   3]+0.245*[#   7]+0.245*[#   4]+0.245*[#   8]+
    |psi|^2 = 0.981
==== e(   4) =     5.72264 eV ====
     psi = 0.327*[#   2]+0.327*[#   6]+0.082*[#   4]+0.082*[#   8]+0.082*[#   3]+
          +0.082*[#   7]+
    |psi|^2 = 0.981
==== e(   5) =     8.48361 eV ====
     psi = 0.265*[#   1]+0.265*[#   5]+0.069*[#   2]+0.069*[#   3]+0.069*[#   4]+
          +0.069*[#   6]+0.069*[#   7]+0.069*[#   8]+
    |psi|^2 = 0.942
==== e(   6) =     9.90246 eV ====
     psi = 0.224*[#   3]+0.224*[#   7]+0.216*[#   4]+0.216*[#   8]+
    |psi|^2 = 0.881
==== e(   7) =     9.90246 eV ====
     psi = 0.293*[#   2]+0.293*[#   6]+0.077*[#   4]+0.077*[#   8]+0.070*[#   3]+
          +0.070*[#   7]+
    |psi|^2 = 0.881
==== e(   8) =    13.43539 eV ====
     psi = 0.179*[#   1]+0.179*[#   5]+0.088*[#   2]+0.088*[#   3]+0.088*[#   4]+
          +0.088*[#   6]+0.088*[#   7]+0.088*[#   8]+
    |psi|^2 = 0.886

 k =   0.0000000000  0.0000000000  0.3535533906
==== e(   1) =    -4.42832 eV ====
     psi = 0.353*[#   1]+0.353*[#   5]+0.145*[#   2]+0.145*[#   6]+
    |psi|^2 = 0.996
==== e(   2) =     2.98076 eV ====
     psi = 0.279*[#   2]+0.279*[#   6]+0.214*[#   1]+0.214*[#   5]+
    |psi|^2 = 0.986
==== e(   3) =     4.56193 eV ====
     psi = 0.326*[#   7]+0.260*[#   4]+0.235*[#   3]+0.169*[#   8]+
    |psi|^2 = 0.990
==== e(   4) =     4.56193 eV ====
     psi = 0.326*[#   8]+0.260*[#   3]+0.235*[#   4]+0.169*[#   7]+
    |psi|^2 = 0.990
==== e(   5) =     7.53244 eV ====
     psi = 0.337*[#   2]+0.337*[#   6]+0.136*[#   1]+0.136*[#   5]+
    |psi|^2 = 0.946
==== e(   6) =     9.52342 eV ====
     psi = 0.123*[#   2]+0.123*[#   6]+0.122*[#   1]+0.122*[#   5]+
    |psi|^2 = 0.490
==== e(   7) =    12.20761 eV ====
     psi = 0.405*[#   3]+0.336*[#   8]+0.095*[#   7]+0.026*[#   4]+
    |psi|^2 = 0.862
==== e(   8) =    12.20761 eV ====
     psi = 0.405*[#   4]+0.336*[#   7]+0.095*[#   8]+0.026*[#   3]+
    |psi|^2 = 0.862

 k =   0.5303300859 -0.5303300859 -0.1767766953
==== e(   1) =    -2.77943 eV ====
     psi = 0.326*[#   1]+0.326*[#   5]+0.141*[#   2]+0.141*[#   6]+0.015*[#   3]+
          +0.015*[#   4]+0.015*[#   7]+0.015*[#   8]+
    |psi|^2 = 0.996
==== e(   2) =     0.08257 eV ====
     psi = 0.212*[#   1]+0.212*[#   5]+0.132*[#   2]+0.132*[#   6]+0.076*[#   3]+
          +0.076*[#   4]+0.076*[#   7]+0.076*[#   8]+
    |psi|^2 = 0.992
==== e(   3) =     2.89776 eV ====
     psi = 0.190*[#   2]+0.190*[#   6]+0.131*[#   3]+0.131*[#   4]+0.131*[#   7]+
          +0.131*[#   8]+0.044*[#   1]+0.044*[#   5]+
    |psi|^2 = 0.993
==== e(   4) =     4.24528 eV ====
     psi = 0.248*[#   3]+0.248*[#   4]+0.248*[#   7]+0.248*[#   8]+
    |psi|^2 = 0.993
==== e(   5) =     7.91824 eV ====
     psi = 0.266*[#   2]+0.266*[#   6]+0.126*[#   1]+0.126*[#   5]+0.010*[#   3]+
          +0.010*[#   4]+0.010*[#   7]+0.010*[#   8]+
    |psi|^2 = 0.823
==== e(   6) =    10.87647 eV ====
     psi = 0.112*[#   2]+0.112*[#   6]+0.080*[#   1]+0.080*[#   5]+0.030*[#   3]+
          +0.030*[#   4]+0.030*[#   7]+0.030*[#   8]+
    |psi|^2 = 0.504
==== e(   7) =    12.20944 eV ====
     psi = 0.116*[#   3]+0.116*[#   4]+0.116*[#   7]+0.116*[#   8]+0.108*[#   1]+
          +0.108*[#   5]+0.051*[#   2]+0.051*[#   6]+
    |psi|^2 = 0.780
==== e(   8) =    12.32715 eV ====
     psi = 0.169*[#   3]+0.169*[#   4]+0.169*[#   7]+0.169*[#   8]+
    |psi|^2 = 0.674

 k =   0.3535533906 -0.3535533906  0.0000000000
==== e(   1) =    -3.45920 eV ====
     psi = 0.334*[#   1]+0.334*[#   5]+0.073*[#   3]+0.073*[#   4]+0.073*[#   7]+
          +0.073*[#   8]+0.018*[#   2]+0.018*[#   6]+
    |psi|^2 = 0.996
==== e(   2) =     0.99347 eV ====
     psi = 0.207*[#   1]+0.207*[#   5]+0.145*[#   2]+0.145*[#   6]+0.072*[#   3]+
          +0.072*[#   4]+0.072*[#   7]+0.072*[#   8]+
    |psi|^2 = 0.993
==== e(   3) =     2.66958 eV ====
     psi = 0.240*[#   2]+0.240*[#   6]+0.109*[#   3]+0.109*[#   4]+0.109*[#   7]+
          +0.109*[#   8]+0.038*[#   1]+0.038*[#   5]+
    |psi|^2 = 0.991
==== e(   4) =     5.14223 eV ====
     psi = 0.247*[#   3]+0.247*[#   4]+0.247*[#   7]+0.247*[#   8]+
    |psi|^2 = 0.988
==== e(   5) =     8.85351 eV ====
     psi = 0.292*[#   2]+0.292*[#   6]+0.102*[#   1]+0.102*[#   5]+0.012*[#   3]+
          +0.012*[#   4]+0.012*[#   7]+0.012*[#   8]+
    |psi|^2 = 0.835
==== e(   6) =    11.18494 eV ====
     psi = 0.226*[#   3]+0.226*[#   4]+0.226*[#   7]+0.226*[#   8]+
    |psi|^2 = 0.904
==== e(   7) =    11.62668 eV ====
     psi = 0.147*[#   2]+0.147*[#   6]+0.077*[#   1]+0.077*[#   5]+0.048*[#   3]+
          +0.048*[#   4]+0.048*[#   7]+0.048*[#   8]+
    |psi|^2 = 0.643
==== e(   8) =    12.59326 eV ====
     psi = 0.152*[#   1]+0.152*[#   5]+0.097*[#   3]+0.097*[#   4]+0.097*[#   7]+
          +0.097*[#   8]+0.003*[#   2]+0.003*[#   6]+
    |psi|^2 = 0.698

 k =  -0.3535533906  0.3535533906 -0.3535533906
==== e(   1) =    -3.16337 eV ====
     psi = 0.386*[#   1]+0.386*[#   5]+0.038*[#   2]+0.038*[#   3]+0.038*[#   4]+
          +0.038*[#   6]+0.038*[#   7]+0.038*[#   8]+
    |psi|^2 = 0.997
==== e(   2) =    -0.53527 eV ====
     psi = 0.126*[#   2]+0.126*[#   3]+0.126*[#   4]+0.126*[#   6]+0.126*[#   7]+
          +0.126*[#   8]+0.116*[#   1]+0.116*[#   5]+
    |psi|^2 = 0.988
==== e(   3) =     5.27886 eV ====
     psi = 0.250*[#   4]+0.250*[#   8]+0.244*[#   3]+0.244*[#   7]+
    |psi|^2 = 0.989
==== e(   4) =     5.27886 eV ====
     psi = 0.329*[#   2]+0.329*[#   6]+0.085*[#   3]+0.085*[#   7]+0.079*[#   4]+
          +0.079*[#   8]+
    |psi|^2 = 0.989
==== e(   5) =     8.00212 eV ====
     psi = 0.342*[#   1]+0.342*[#   5]+0.039*[#   2]+0.039*[#   3]+0.039*[#   4]+
          +0.039*[#   6]+0.039*[#   7]+0.039*[#   8]+
    |psi|^2 = 0.918
==== e(   6) =     9.71048 eV ====
     psi = 0.211*[#   3]+0.211*[#   7]+0.164*[#   4]+0.164*[#   8]+0.006*[#   2]+
          +0.006*[#   6]+
    |psi|^2 = 0.762
==== e(   7) =     9.71048 eV ====
     psi = 0.248*[#   2]+0.248*[#   6]+0.090*[#   4]+0.090*[#   8]+0.043*[#   3]+
          +0.043*[#   7]+
    |psi|^2 = 0.762
==== e(   8) =    14.15700 eV ====
     psi = 0.022*[#   2]+0.022*[#   3]+0.022*[#   4]+0.022*[#   6]+0.022*[#   7]+
          +0.022*[#   8]+0.018*[#   1]+0.018*[#   5]+
    |psi|^2 = 0.167

 k =  -0.5303300859  0.5303300859 -0.1767766953
==== e(   1) =    -2.77943 eV ====
     psi = 0.326*[#   1]+0.326*[#   5]+0.141*[#   2]+0.141*[#   6]+0.015*[#   3]+
          +0.015*[#   4]+0.015*[#   7]+0.015*[#   8]+
    |psi|^2 = 0.996
==== e(   2) =     0.08257 eV ====
     psi = 0.212*[#   1]+0.212*[#   5]+0.132*[#   2]+0.132*[#   6]+0.076*[#   3]+
          +0.076*[#   4]+0.076*[#   7]+0.076*[#   8]+
    |psi|^2 = 0.992
==== e(   3) =     2.89776 eV ====
     psi = 0.190*[#   2]+0.190*[#   6]+0.131*[#   3]+0.131*[#   4]+0.131*[#   7]+
          +0.131*[#   8]+0.044*[#   1]+0.044*[#   5]+
    |psi|^2 = 0.993
==== e(   4) =     4.24528 eV ====
     psi = 0.248*[#   3]+0.248*[#   4]+0.248*[#   7]+0.248*[#   8]+
    |psi|^2 = 0.993
==== e(   5) =     7.91824 eV ====
     psi = 0.266*[#   2]+0.266*[#   6]+0.126*[#   1]+0.126*[#   5]+0.010*[#   3]+
          +0.010*[#   4]+0.010*[#   7]+0.010*[#   8]+
    |psi|^2 = 0.823
==== e(   6) =    10.87647 eV ====
     psi = 0.112*[#   2]+0.112*[#   6]+0.080*[#   1]+0.080*[#   5]+0.030*[#   3]+
          +0.030*[#   4]+0.030*[#   7]+0.030*[#   8]+
    |psi|^2 = 0.504
==== e(   7) =    12.20944 eV ====
     psi = 0.116*[#   3]+0.116*[#   4]+0.116*[#   7]+0.116*[#   8]+0.108*[#   1]+
          +0.108*[#   5]+0.051*[#   2]+0.051*[#   6]+
    |psi|^2 = 0.780
==== e(   8) =    12.32715 eV ====
     psi = 0.169*[#   3]+0.169*[#   4]+0.169*[#   7]+0.169*[#   8]+
    |psi|^2 = 0.674

 k =   0.0000000000  0.0000000000 -0.7071067812
==== e(   1) =    -1.34796 eV ====
     psi = 0.372*[#   1]+0.290*[#   6]+0.187*[#   5]+0.146*[#   2]+
    |psi|^2 = 0.994
==== e(   2) =    -1.34796 eV ====
     psi = 0.372*[#   5]+0.290*[#   2]+0.187*[#   1]+0.146*[#   6]+
    |psi|^2 = 0.994
==== e(   3) =     3.58802 eV ====
     psi = 0.276*[#   4]+0.276*[#   7]+0.222*[#   3]+0.222*[#   8]+
    |psi|^2 = 0.995
==== e(   4) =     3.58802 eV ====
     psi = 0.276*[#   3]+0.276*[#   8]+0.222*[#   4]+0.222*[#   7]+
    |psi|^2 = 0.995
==== e(   5) =     7.10523 eV ====
     psi = 0.430*[#   2]+0.302*[#   5]+0.057*[#   6]+0.040*[#   1]+
    |psi|^2 = 0.829
==== e(   6) =     7.10523 eV ====
     psi = 0.430*[#   6]+0.302*[#   1]+0.057*[#   2]+0.040*[#   5]+
    |psi|^2 = 0.829
==== e(   7) =    16.56166 eV ====
     psi = 0.433*[#   3]+0.433*[#   8]+0.027*[#   4]+0.027*[#   7]+
    |psi|^2 = 0.921
==== e(   8) =    16.56166 eV ====
     psi = 0.433*[#   4]+0.433*[#   7]+0.027*[#   3]+0.027*[#   8]+
    |psi|^2 = 0.921

 k =   0.1767766953  0.1767766953 -0.1767766953
==== e(   1) =    -4.71157 eV ====
     psi = 0.382*[#   1]+0.382*[#   5]+0.039*[#   2]+0.039*[#   3]+0.039*[#   4]+
          +0.039*[#   6]+0.039*[#   7]+0.039*[#   8]+
    |psi|^2 = 0.996
==== e(   2) =     2.53385 eV ====
     psi = 0.140*[#   1]+0.140*[#   5]+0.118*[#   2]+0.118*[#   3]+0.118*[#   4]+
          +0.118*[#   6]+0.118*[#   7]+0.118*[#   8]+
    |psi|^2 = 0.986
==== e(   3) =     5.72264 eV ====
     psi = 0.245*[#   3]+0.245*[#   7]+0.245*[#   4]+0.245*[#   8]+
    |psi|^2 = 0.981
==== e(   4) =     5.72264 eV ====
     psi = 0.327*[#   2]+0.327*[#   6]+0.082*[#   4]+0.082*[#   8]+0.082*[#   3]+
          +0.082*[#   7]+
    |psi|^2 = 0.981
==== e(   5) =     8.48361 eV ====
     psi = 0.265*[#   1]+0.265*[#   5]+0.069*[#   2]+0.069*[#   3]+0.069*[#   4]+
          +0.069*[#   6]+0.069*[#   7]+0.069*[#   8]+
    |psi|^2 = 0.942
==== e(   6) =     9.90246 eV ====
     psi = 0.221*[#   3]+0.221*[#   7]+0.216*[#   4]+0.216*[#   8]+0.004*[#   2]+
          +0.004*[#   6]+
    |psi|^2 = 0.881
==== e(   7) =     9.90246 eV ====
     psi = 0.290*[#   2]+0.290*[#   6]+0.078*[#   4]+0.078*[#   8]+0.072*[#   3]+
          +0.072*[#   7]+
    |psi|^2 = 0.881
==== e(   8) =    13.43539 eV ====
     psi = 0.179*[#   1]+0.179*[#   5]+0.088*[#   2]+0.088*[#   4]+0.088*[#   6]+
          +0.088*[#   7]+0.088*[#   3]+0.088*[#   8]+
    |psi|^2 = 0.886

 k =   0.0000000000  0.3535533906  0.0000000000
==== e(   1) =    -4.42832 eV ====
     psi = 0.353*[#   1]+0.353*[#   5]+0.145*[#   4]+0.145*[#   8]+
    |psi|^2 = 0.996
==== e(   2) =     2.98076 eV ====
     psi = 0.279*[#   4]+0.279*[#   8]+0.214*[#   1]+0.214*[#   5]+
    |psi|^2 = 0.986
==== e(   3) =     4.56193 eV ====
     psi = 0.307*[#   7]+0.294*[#   3]+0.201*[#   2]+0.188*[#   6]+
    |psi|^2 = 0.990
==== e(   4) =     4.56193 eV ====
     psi = 0.307*[#   6]+0.294*[#   2]+0.201*[#   3]+0.188*[#   7]+
    |psi|^2 = 0.990
==== e(   5) =     7.53244 eV ====
     psi = 0.337*[#   4]+0.337*[#   8]+0.136*[#   1]+0.136*[#   5]+
    |psi|^2 = 0.946
==== e(   6) =     9.52342 eV ====
     psi = 0.123*[#   4]+0.123*[#   8]+0.122*[#   1]+0.122*[#   5]+
    |psi|^2 = 0.490
==== e(   7) =    12.20761 eV ====
     psi = 0.301*[#   3]+0.237*[#   7]+0.194*[#   6]+0.130*[#   2]+
    |psi|^2 = 0.862
==== e(   8) =    12.20761 eV ====
     psi = 0.301*[#   2]+0.237*[#   6]+0.194*[#   7]+0.130*[#   3]+
    |psi|^2 = 0.862

 k =   0.5303300859 -0.1767766953 -0.5303300859
==== e(   1) =    -2.77943 eV ====
     psi = 0.326*[#   1]+0.326*[#   5]+0.141*[#   4]+0.141*[#   8]+0.015*[#   2]+
          +0.015*[#   3]+0.015*[#   6]+0.015*[#   7]+
    |psi|^2 = 0.996
==== e(   2) =     0.08257 eV ====
     psi = 0.212*[#   1]+0.212*[#   5]+0.132*[#   4]+0.132*[#   8]+0.076*[#   2]+
          +0.076*[#   3]+0.076*[#   6]+0.076*[#   7]+
    |psi|^2 = 0.992
==== e(   3) =     2.89776 eV ====
     psi = 0.190*[#   4]+0.190*[#   8]+0.131*[#   2]+0.131*[#   3]+0.131*[#   6]+
          +0.131*[#   7]+0.044*[#   1]+0.044*[#   5]+
    |psi|^2 = 0.993
==== e(   4) =     4.24528 eV ====
     psi = 0.248*[#   2]+0.248*[#   3]+0.248*[#   6]+0.248*[#   7]+
    |psi|^2 = 0.993
==== e(   5) =     7.91824 eV ====
     psi = 0.266*[#   4]+0.266*[#   8]+0.126*[#   1]+0.126*[#   5]+0.010*[#   2]+
          +0.010*[#   3]+0.010*[#   6]+0.010*[#   7]+
    |psi|^2 = 0.823
==== e(   6) =    10.87647 eV ====
     psi = 0.112*[#   4]+0.112*[#   8]+0.080*[#   1]+0.080*[#   5]+0.030*[#   2]+
          +0.030*[#   3]+0.030*[#   6]+0.030*[#   7]+
    |psi|^2 = 0.504
==== e(   7) =    12.20944 eV ====
     psi = 0.116*[#   2]+0.116*[#   3]+0.116*[#   6]+0.116*[#   7]+0.108*[#   1]+
          +0.108*[#   5]+0.051*[#   4]+0.051*[#   8]+
    |psi|^2 = 0.780
==== e(   8) =    12.32715 eV ====
     psi = 0.169*[#   2]+0.169*[#   3]+0.169*[#   6]+0.169*[#   7]+
    |psi|^2 = 0.674

 k =   0.3535533906  0.0000000000 -0.3535533906
==== e(   1) =    -3.45920 eV ====
     psi = 0.334*[#   1]+0.334*[#   5]+0.073*[#   2]+0.073*[#   3]+0.073*[#   6]+
          +0.073*[#   7]+0.018*[#   4]+0.018*[#   8]+
    |psi|^2 = 0.996
==== e(   2) =     0.99347 eV ====
     psi = 0.207*[#   1]+0.207*[#   5]+0.145*[#   4]+0.145*[#   8]+0.072*[#   2]+
          +0.072*[#   3]+0.072*[#   6]+0.072*[#   7]+
    |psi|^2 = 0.993
==== e(   3) =     2.66958 eV ====
     psi = 0.240*[#   4]+0.240*[#   8]+0.109*[#   2]+0.109*[#   3]+0.109*[#   6]+
          +0.109*[#   7]+0.038*[#   1]+0.038*[#   5]+
    |psi|^2 = 0.991
==== e(   4) =     5.14223 eV ====
     psi = 0.247*[#   2]+0.247*[#   3]+0.247*[#   6]+0.247*[#   7]+
    |psi|^2 = 0.988
==== e(   5) =     8.85351 eV ====
     psi = 0.292*[#   4]+0.292*[#   8]+0.102*[#   1]+0.102*[#   5]+0.012*[#   2]+
          +0.012*[#   3]+0.012*[#   6]+0.012*[#   7]+
    |psi|^2 = 0.835
==== e(   6) =    11.18494 eV ====
     psi = 0.226*[#   2]+0.226*[#   3]+0.226*[#   6]+0.226*[#   7]+
    |psi|^2 = 0.904
==== e(   7) =    11.62668 eV ====
     psi = 0.147*[#   4]+0.147*[#   8]+0.077*[#   1]+0.077*[#   5]+0.048*[#   2]+
          +0.048*[#   3]+0.048*[#   6]+0.048*[#   7]+
    |psi|^2 = 0.643
==== e(   8) =    12.59326 eV ====
     psi = 0.152*[#   1]+0.152*[#   5]+0.097*[#   2]+0.097*[#   3]+0.097*[#   6]+
          +0.097*[#   7]+0.003*[#   4]+0.003*[#   8]+
    |psi|^2 = 0.698

 k =   0.3535533906  0.0000000000  0.0000000000
==== e(   1) =    -4.42832 eV ====
     psi = 0.353*[#   1]+0.353*[#   5]+0.145*[#   3]+0.145*[#   7]+
    |psi|^2 = 0.996
==== e(   2) =     2.98076 eV ====
     psi = 0.279*[#   3]+0.279*[#   7]+0.214*[#   1]+0.214*[#   5]+
    |psi|^2 = 0.986
==== e(   3) =     4.56193 eV ====
     psi = 0.302*[#   4]+0.299*[#   8]+0.196*[#   6]+0.193*[#   2]+
    |psi|^2 = 0.990
==== e(   4) =     4.56193 eV ====
     psi = 0.302*[#   2]+0.299*[#   6]+0.196*[#   8]+0.193*[#   4]+
    |psi|^2 = 0.990
==== e(   5) =     7.53244 eV ====
     psi = 0.337*[#   3]+0.337*[#   7]+0.136*[#   1]+0.136*[#   5]+
    |psi|^2 = 0.946
==== e(   6) =     9.52342 eV ====
     psi = 0.123*[#   3]+0.123*[#   7]+0.122*[#   1]+0.122*[#   5]+
    |psi|^2 = 0.490
==== e(   7) =    12.20761 eV ====
     psi = 0.322*[#   6]+0.319*[#   4]+0.112*[#   2]+0.110*[#   8]+
    |psi|^2 = 0.862
==== e(   8) =    12.20761 eV ====
     psi = 0.322*[#   8]+0.319*[#   2]+0.112*[#   4]+0.110*[#   6]+
    |psi|^2 = 0.862

 k =   0.1767766953  0.1767766953  0.1767766953
==== e(   1) =    -4.71157 eV ====
     psi = 0.382*[#   1]+0.382*[#   5]+0.039*[#   2]+0.039*[#   3]+0.039*[#   4]+
          +0.039*[#   6]+0.039*[#   7]+0.039*[#   8]+
    |psi|^2 = 0.996
==== e(   2) =     2.53385 eV ====
     psi = 0.140*[#   1]+0.140*[#   5]+0.118*[#   2]+0.118*[#   3]+0.118*[#   4]+
          +0.118*[#   6]+0.118*[#   7]+0.118*[#   8]+
    |psi|^2 = 0.986
==== e(   3) =     5.72264 eV ====
     psi = 0.245*[#   4]+0.245*[#   8]+0.245*[#   3]+0.245*[#   7]+
    |psi|^2 = 0.981
==== e(   4) =     5.72264 eV ====
     psi = 0.327*[#   2]+0.327*[#   6]+0.082*[#   3]+0.082*[#   7]+0.082*[#   4]+
          +0.082*[#   8]+
    |psi|^2 = 0.981
==== e(   5) =     8.48361 eV ====
     psi = 0.265*[#   1]+0.265*[#   5]+0.069*[#   2]+0.069*[#   3]+0.069*[#   4]+
          +0.069*[#   6]+0.069*[#   7]+0.069*[#   8]+
    |psi|^2 = 0.942
==== e(   6) =     9.90246 eV ====
     psi = 0.233*[#   3]+0.233*[#   7]+0.206*[#   4]+0.206*[#   8]+
    |psi|^2 = 0.881
==== e(   7) =     9.90246 eV ====
     psi = 0.293*[#   2]+0.293*[#   6]+0.088*[#   4]+0.088*[#   8]+0.060*[#   3]+
          +0.060*[#   7]+
    |psi|^2 = 0.881
==== e(   8) =    13.43539 eV ====
     psi = 0.179*[#   1]+0.179*[#   5]+0.088*[#   3]+0.088*[#   8]+0.088*[#   2]+
          +0.088*[#   6]+0.088*[#   4]+0.088*[#   7]+
    |psi|^2 = 0.886

 k =   0.7071067812 -0.3535533906 -0.3535533906
==== e(   1) =    -3.45920 eV ====
     psi = 0.334*[#   1]+0.334*[#   5]+0.073*[#   2]+0.073*[#   4]+0.073*[#   6]+
          +0.073*[#   8]+0.018*[#   3]+0.018*[#   7]+
    |psi|^2 = 0.996
==== e(   2) =     0.99347 eV ====
     psi = 0.207*[#   1]+0.207*[#   5]+0.145*[#   3]+0.145*[#   7]+0.072*[#   2]+
          +0.072*[#   4]+0.072*[#   6]+0.072*[#   8]+
    |psi|^2 = 0.993
==== e(   3) =     2.66958 eV ====
     psi = 0.240*[#   3]+0.240*[#   7]+0.109*[#   2]+0.109*[#   4]+0.109*[#   6]+
          +0.109*[#   8]+0.038*[#   1]+0.038*[#   5]+
    |psi|^2 = 0.991
==== e(   4) =     5.14223 eV ====
     psi = 0.247*[#   2]+0.247*[#   4]+0.247*[#   6]+0.247*[#   8]+
    |psi|^2 = 0.988
==== e(   5) =     8.85351 eV ====
     psi = 0.292*[#   3]+0.292*[#   7]+0.102*[#   1]+0.102*[#   5]+0.012*[#   2]+
          +0.012*[#   4]+0.012*[#   6]+0.012*[#   8]+
    |psi|^2 = 0.835
==== e(   6) =    11.18494 eV ====
     psi = 0.226*[#   2]+0.226*[#   4]+0.226*[#   6]+0.226*[#   8]+
    |psi|^2 = 0.904
==== e(   7) =    11.62668 eV ====
     psi = 0.147*[#   3]+0.147*[#   7]+0.077*[#   1]+0.077*[#   5]+0.048*[#   2]+
          +0.048*[#   4]+0.048*[#   6]+0.048*[#   8]+
    |psi|^2 = 0.643
==== e(   8) =    12.59326 eV ====
     psi = 0.152*[#   1]+0.152*[#   5]+0.097*[#   2]+0.097*[#   4]+0.097*[#   6]+
          +0.097*[#   8]+0.003*[#   3]+0.003*[#   7]+
    |psi|^2 = 0.698

 k =   0.5303300859 -0.1767766953 -0.1767766953
==== e(   1) =    -2.77943 eV ====
     psi = 0.326*[#   1]+0.326*[#   5]+0.141*[#   3]+0.141*[#   7]+0.015*[#   2]+
          +0.015*[#   4]+0.015*[#   6]+0.015*[#   8]+
    |psi|^2 = 0.996
==== e(   2) =     0.08257 eV ====
     psi = 0.212*[#   1]+0.212*[#   5]+0.132*[#   3]+0.132*[#   7]+0.076*[#   2]+
          +0.076*[#   4]+0.076*[#   6]+0.076*[#   8]+
    |psi|^2 = 0.992
==== e(   3) =     2.89776 eV ====
     psi = 0.190*[#   3]+0.190*[#   7]+0.131*[#   2]+0.131*[#   4]+0.131*[#   6]+
          +0.131*[#   8]+0.044*[#   1]+0.044*[#   5]+
    |psi|^2 = 0.993
==== e(   4) =     4.24528 eV ====
     psi = 0.248*[#   2]+0.248*[#   4]+0.248*[#   6]+0.248*[#   8]+
    |psi|^2 = 0.993
==== e(   5) =     7.91824 eV ====
     psi = 0.266*[#   3]+0.266*[#   7]+0.126*[#   1]+0.126*[#   5]+0.010*[#   2]+
          +0.010*[#   4]+0.010*[#   6]+0.010*[#   8]+
    |psi|^2 = 0.823
==== e(   6) =    10.87647 eV ====
     psi = 0.112*[#   3]+0.112*[#   7]+0.080*[#   1]+0.080*[#   5]+0.030*[#   2]+
          +0.030*[#   4]+0.030*[#   6]+0.030*[#   8]+
    |psi|^2 = 0.504
==== e(   7) =    12.20944 eV ====
     psi = 0.116*[#   2]+0.116*[#   4]+0.116*[#   6]+0.116*[#   8]+0.108*[#   1]+
          +0.108*[#   5]+0.051*[#   3]+0.051*[#   7]+
    |psi|^2 = 0.780
==== e(   8) =    12.32715 eV ====
     psi = 0.169*[#   2]+0.169*[#   4]+0.169*[#   6]+0.169*[#   8]+
    |psi|^2 = 0.674

 k =  -0.1767766953  0.5303300859 -0.5303300859
==== e(   1) =    -2.77943 eV ====
     psi = 0.326*[#   1]+0.326*[#   5]+0.141*[#   3]+0.141*[#   7]+0.015*[#   2]+
          +0.015*[#   4]+0.015*[#   6]+0.015*[#   8]+
    |psi|^2 = 0.996
==== e(   2) =     0.08257 eV ====
     psi = 0.212*[#   1]+0.212*[#   5]+0.132*[#   3]+0.132*[#   7]+0.076*[#   2]+
          +0.076*[#   4]+0.076*[#   6]+0.076*[#   8]+
    |psi|^2 = 0.992
==== e(   3) =     2.89776 eV ====
     psi = 0.190*[#   3]+0.190*[#   7]+0.131*[#   2]+0.131*[#   4]+0.131*[#   6]+
          +0.131*[#   8]+0.044*[#   1]+0.044*[#   5]+
    |psi|^2 = 0.993
==== e(   4) =     4.24528 eV ====
     psi = 0.248*[#   2]+0.248*[#   4]+0.248*[#   6]+0.248*[#   8]+
    |psi|^2 = 0.993
==== e(   5) =     7.91824 eV ====
     psi = 0.266*[#   3]+0.266*[#   7]+0.126*[#   1]+0.126*[#   5]+0.010*[#   2]+
          +0.010*[#   4]+0.010*[#   6]+0.010*[#   8]+
    |psi|^2 = 0.823
==== e(   6) =    10.87647 eV ====
     psi = 0.112*[#   3]+0.112*[#   7]+0.080*[#   1]+0.080*[#   5]+0.030*[#   2]+
          +0.030*[#   4]+0.030*[#   6]+0.030*[#   8]+
    |psi|^2 = 0.504
==== e(   7) =    12.20944 eV ====
     psi = 0.116*[#   2]+0.116*[#   4]+0.116*[#   6]+0.116*[#   8]+0.108*[#   1]+
          +0.108*[#   5]+0.051*[#   3]+0.051*[#   7]+
    |psi|^2 = 0.780
==== e(   8) =    12.32715 eV ====
     psi = 0.169*[#   2]+0.169*[#   4]+0.169*[#   6]+0.169*[#   8]+
    |psi|^2 = 0.674

 k =  -0.3535533906  0.7071067812 -0.3535533906
==== e(   1) =    -3.45920 eV ====
     psi = 0.334*[#   1]+0.334*[#   5]+0.073*[#   2]+0.073*[#   3]+0.073*[#   6]+
          +0.073*[#   7]+0.018*[#   4]+0.018*[#   8]+
    |psi|^2 = 0.996
==== e(   2) =     0.99347 eV ====
     psi = 0.207*[#   1]+0.207*[#   5]+0.145*[#   4]+0.145*[#   8]+0.072*[#   2]+
          +0.072*[#   3]+0.072*[#   6]+0.072*[#   7]+
    |psi|^2 = 0.993
==== e(   3) =     2.66958 eV ====
     psi = 0.240*[#   4]+0.240*[#   8]+0.109*[#   2]+0.109*[#   3]+0.109*[#   6]+
          +0.109*[#   7]+0.038*[#   1]+0.038*[#   5]+
    |psi|^2 = 0.991
==== e(   4) =     5.14223 eV ====
     psi = 0.247*[#   2]+0.247*[#   3]+0.247*[#   6]+0.247*[#   7]+
    |psi|^2 = 0.988
==== e(   5) =     8.85351 eV ====
     psi = 0.292*[#   4]+0.292*[#   8]+0.102*[#   1]+0.102*[#   5]+0.012*[#   2]+
          +0.012*[#   3]+0.012*[#   6]+0.012*[#   7]+
    |psi|^2 = 0.835
==== e(   6) =    11.18494 eV ====
     psi = 0.226*[#   2]+0.226*[#   3]+0.226*[#   6]+0.226*[#   7]+
    |psi|^2 = 0.904
==== e(   7) =    11.62668 eV ====
     psi = 0.147*[#   4]+0.147*[#   8]+0.077*[#   1]+0.077*[#   5]+0.048*[#   2]+
          +0.048*[#   3]+0.048*[#   6]+0.048*[#   7]+
    |psi|^2 = 0.643
==== e(   8) =    12.59326 eV ====
     psi = 0.152*[#   1]+0.152*[#   5]+0.097*[#   2]+0.097*[#   3]+0.097*[#   6]+
          +0.097*[#   7]+0.003*[#   4]+0.003*[#   8]+
    |psi|^2 = 0.698

 k =   0.1767766953  0.1767766953 -0.8838834765
==== e(   1) =    -2.77943 eV ====
     psi = 0.326*[#   1]+0.326*[#   5]+0.141*[#   2]+0.141*[#   6]+0.015*[#   3]+
          +0.015*[#   4]+0.015*[#   7]+0.015*[#   8]+
    |psi|^2 = 0.996
==== e(   2) =     0.08257 eV ====
     psi = 0.212*[#   1]+0.212*[#   5]+0.132*[#   2]+0.132*[#   6]+0.076*[#   3]+
          +0.076*[#   4]+0.076*[#   7]+0.076*[#   8]+
    |psi|^2 = 0.992
==== e(   3) =     2.89776 eV ====
     psi = 0.190*[#   2]+0.190*[#   6]+0.131*[#   3]+0.131*[#   4]+0.131*[#   7]+
          +0.131*[#   8]+0.044*[#   1]+0.044*[#   5]+
    |psi|^2 = 0.993
==== e(   4) =     4.24528 eV ====
     psi = 0.248*[#   3]+0.248*[#   4]+0.248*[#   7]+0.248*[#   8]+
    |psi|^2 = 0.993
==== e(   5) =     7.91824 eV ====
     psi = 0.266*[#   2]+0.266*[#   6]+0.126*[#   1]+0.126*[#   5]+0.010*[#   3]+
          +0.010*[#   4]+0.010*[#   7]+0.010*[#   8]+
    |psi|^2 = 0.823
==== e(   6) =    10.87647 eV ====
     psi = 0.112*[#   2]+0.112*[#   6]+0.080*[#   1]+0.080*[#   5]+0.030*[#   3]+
          +0.030*[#   4]+0.030*[#   7]+0.030*[#   8]+
    |psi|^2 = 0.504
==== e(   7) =    12.20944 eV ====
     psi = 0.116*[#   3]+0.116*[#   4]+0.116*[#   7]+0.116*[#   8]+0.108*[#   1]+
          +0.108*[#   5]+0.051*[#   2]+0.051*[#   6]+
    |psi|^2 = 0.780
==== e(   8) =    12.32715 eV ====
     psi = 0.169*[#   3]+0.169*[#   4]+0.169*[#   7]+0.169*[#   8]+
    |psi|^2 = 0.674

 k =  -0.0000000000  0.3535533906 -0.7071067812
==== e(   1) =    -1.17748 eV ====
     psi = 0.490*[#   1]+0.163*[#   6]+0.163*[#   7]+0.108*[#   5]+0.036*[#   2]+
          +0.036*[#   3]+
    |psi|^2 = 0.995
==== e(   2) =    -1.17748 eV ====
     psi = 0.490*[#   5]+0.163*[#   2]+0.163*[#   3]+0.108*[#   1]+0.036*[#   6]+
          +0.036*[#   7]+
    |psi|^2 = 0.995
==== e(   3) =     2.56310 eV ====
     psi = 0.329*[#   4]+0.261*[#   6]+0.261*[#   7]+0.055*[#   8]+0.044*[#   2]+
          +0.044*[#   3]+
    |psi|^2 = 0.994
==== e(   4) =     2.56310 eV ====
     psi = 0.329*[#   8]+0.261*[#   2]+0.261*[#   3]+0.055*[#   4]+0.044*[#   6]+
          +0.044*[#   7]+
    |psi|^2 = 0.994
==== e(   5) =    10.71113 eV ====
     psi = 0.256*[#   4]+0.079*[#   6]+0.079*[#   7]+0.041*[#   8]+0.013*[#   2]+
          +0.013*[#   3]+
    |psi|^2 = 0.481
==== e(   6) =    10.71113 eV ====
     psi = 0.256*[#   8]+0.079*[#   2]+0.079*[#   3]+0.041*[#   4]+0.013*[#   6]+
          +0.013*[#   7]+
    |psi|^2 = 0.481
==== e(   7) =    11.41545 eV ====
     psi = 0.248*[#   1]+0.202*[#   6]+0.202*[#   7]+0.068*[#   5]+0.055*[#   2]+
          +0.055*[#   3]+
    |psi|^2 = 0.830
==== e(   8) =    11.41545 eV ====
     psi = 0.248*[#   5]+0.202*[#   2]+0.202*[#   3]+0.068*[#   1]+0.055*[#   6]+
          +0.055*[#   7]+
    |psi|^2 = 0.830

 k =  -0.0000000000  0.3535533906 -0.3535533906
==== e(   1) =    -3.45920 eV ====
     psi = 0.334*[#   1]+0.334*[#   5]+0.073*[#   2]+0.073*[#   4]+0.073*[#   6]+
          +0.073*[#   8]+0.018*[#   3]+0.018*[#   7]+
    |psi|^2 = 0.996
==== e(   2) =     0.99347 eV ====
     psi = 0.207*[#   1]+0.207*[#   5]+0.145*[#   3]+0.145*[#   7]+0.072*[#   2]+
          +0.072*[#   4]+0.072*[#   6]+0.072*[#   8]+
    |psi|^2 = 0.993
==== e(   3) =     2.66958 eV ====
     psi = 0.240*[#   3]+0.240*[#   7]+0.109*[#   2]+0.109*[#   4]+0.109*[#   6]+
          +0.109*[#   8]+0.038*[#   1]+0.038*[#   5]+
    |psi|^2 = 0.991
==== e(   4) =     5.14223 eV ====
     psi = 0.247*[#   2]+0.247*[#   4]+0.247*[#   6]+0.247*[#   8]+
    |psi|^2 = 0.988
==== e(   5) =     8.85351 eV ====
     psi = 0.292*[#   3]+0.292*[#   7]+0.102*[#   1]+0.102*[#   5]+0.012*[#   2]+
          +0.012*[#   4]+0.012*[#   6]+0.012*[#   8]+
    |psi|^2 = 0.835
==== e(   6) =    11.18494 eV ====
     psi = 0.226*[#   2]+0.226*[#   4]+0.226*[#   6]+0.226*[#   8]+
    |psi|^2 = 0.904
==== e(   7) =    11.62668 eV ====
     psi = 0.147*[#   3]+0.147*[#   7]+0.077*[#   1]+0.077*[#   5]+0.048*[#   2]+
          +0.048*[#   4]+0.048*[#   6]+0.048*[#   8]+
    |psi|^2 = 0.643
==== e(   8) =    12.59326 eV ====
     psi = 0.152*[#   1]+0.152*[#   5]+0.097*[#   2]+0.097*[#   4]+0.097*[#   6]+
          +0.097*[#   8]+0.003*[#   3]+0.003*[#   7]+
    |psi|^2 = 0.698

 k =  -0.1767766953  0.5303300859 -0.1767766953
==== e(   1) =    -2.77943 eV ====
     psi = 0.326*[#   1]+0.326*[#   5]+0.141*[#   4]+0.141*[#   8]+0.015*[#   2]+
          +0.015*[#   3]+0.015*[#   6]+0.015*[#   7]+
    |psi|^2 = 0.996
==== e(   2) =     0.08257 eV ====
     psi = 0.212*[#   1]+0.212*[#   5]+0.132*[#   4]+0.132*[#   8]+0.076*[#   2]+
          +0.076*[#   3]+0.076*[#   6]+0.076*[#   7]+
    |psi|^2 = 0.992
==== e(   3) =     2.89776 eV ====
     psi = 0.190*[#   4]+0.190*[#   8]+0.131*[#   2]+0.131*[#   3]+0.131*[#   6]+
          +0.131*[#   7]+0.044*[#   1]+0.044*[#   5]+
    |psi|^2 = 0.993
==== e(   4) =     4.24528 eV ====
     psi = 0.248*[#   2]+0.248*[#   3]+0.248*[#   6]+0.248*[#   7]+
    |psi|^2 = 0.993
==== e(   5) =     7.91824 eV ====
     psi = 0.266*[#   4]+0.266*[#   8]+0.126*[#   1]+0.126*[#   5]+0.010*[#   2]+
          +0.010*[#   3]+0.010*[#   6]+0.010*[#   7]+
    |psi|^2 = 0.823
==== e(   6) =    10.87647 eV ====
     psi = 0.112*[#   4]+0.112*[#   8]+0.080*[#   1]+0.080*[#   5]+0.030*[#   2]+
          +0.030*[#   3]+0.030*[#   6]+0.030*[#   7]+
    |psi|^2 = 0.504
==== e(   7) =    12.20944 eV ====
     psi = 0.116*[#   2]+0.116*[#   3]+0.116*[#   6]+0.116*[#   7]+0.108*[#   1]+
          +0.108*[#   5]+0.051*[#   4]+0.051*[#   8]+
    |psi|^2 = 0.780
==== e(   8) =    12.32715 eV ====
     psi = 0.169*[#   2]+0.169*[#   3]+0.169*[#   6]+0.169*[#   7]+
    |psi|^2 = 0.674

 k =   0.3535533906  0.0000000000 -0.7071067812
==== e(   1) =    -1.17748 eV ====
     psi = 0.320*[#   1]+0.278*[#   5]+0.106*[#   6]+0.106*[#   8]+0.092*[#   2]+
          +0.092*[#   4]+
    |psi|^2 = 0.995
==== e(   2) =    -1.17748 eV ====
     psi = 0.320*[#   5]+0.278*[#   1]+0.106*[#   2]+0.106*[#   4]+0.092*[#   6]+
          +0.092*[#   8]+
    |psi|^2 = 0.995
==== e(   3) =     2.56310 eV ====
     psi = 0.382*[#   7]+0.303*[#   2]+0.303*[#   4]+0.002*[#   3]+0.002*[#   6]+
          +0.002*[#   8]+
    |psi|^2 = 0.994
==== e(   4) =     2.56310 eV ====
     psi = 0.382*[#   3]+0.303*[#   6]+0.303*[#   8]+0.002*[#   7]+0.002*[#   2]+
          +0.002*[#   4]+
    |psi|^2 = 0.994
==== e(   5) =    10.71113 eV ====
     psi = 0.285*[#   3]+0.088*[#   6]+0.088*[#   8]+0.012*[#   7]+0.004*[#   2]+
          +0.004*[#   4]+
    |psi|^2 = 0.481
==== e(   6) =    10.71113 eV ====
     psi = 0.285*[#   7]+0.088*[#   2]+0.088*[#   4]+0.012*[#   3]+0.004*[#   6]+
          +0.004*[#   8]+
    |psi|^2 = 0.481
==== e(   7) =    11.41545 eV ====
     psi = 0.224*[#   1]+0.182*[#   6]+0.182*[#   8]+0.092*[#   5]+0.075*[#   2]+
          +0.075*[#   4]+
    |psi|^2 = 0.830
==== e(   8) =    11.41545 eV ====
     psi = 0.224*[#   5]+0.182*[#   2]+0.182*[#   4]+0.092*[#   1]+0.075*[#   6]+
          +0.075*[#   8]+
    |psi|^2 = 0.830

 k =   0.1767766953  0.1767766953 -0.5303300859
==== e(   1) =    -2.77943 eV ====
     psi = 0.326*[#   1]+0.326*[#   5]+0.141*[#   2]+0.141*[#   6]+0.015*[#   3]+
          +0.015*[#   4]+0.015*[#   7]+0.015*[#   8]+
    |psi|^2 = 0.996
==== e(   2) =     0.08257 eV ====
     psi = 0.212*[#   1]+0.212*[#   5]+0.132*[#   2]+0.132*[#   6]+0.076*[#   3]+
          +0.076*[#   4]+0.076*[#   7]+0.076*[#   8]+
    |psi|^2 = 0.992
==== e(   3) =     2.89776 eV ====
     psi = 0.190*[#   2]+0.190*[#   6]+0.131*[#   3]+0.131*[#   4]+0.131*[#   7]+
          +0.131*[#   8]+0.044*[#   1]+0.044*[#   5]+
    |psi|^2 = 0.993
==== e(   4) =     4.24528 eV ====
     psi = 0.248*[#   3]+0.248*[#   4]+0.248*[#   7]+0.248*[#   8]+
    |psi|^2 = 0.993
==== e(   5) =     7.91824 eV ====
     psi = 0.266*[#   2]+0.266*[#   6]+0.126*[#   1]+0.126*[#   5]+0.010*[#   3]+
          +0.010*[#   4]+0.010*[#   7]+0.010*[#   8]+
    |psi|^2 = 0.823
==== e(   6) =    10.87647 eV ====
     psi = 0.112*[#   2]+0.112*[#   6]+0.080*[#   1]+0.080*[#   5]+0.030*[#   3]+
          +0.030*[#   4]+0.030*[#   7]+0.030*[#   8]+
    |psi|^2 = 0.504
==== e(   7) =    12.20944 eV ====
     psi = 0.116*[#   3]+0.116*[#   4]+0.116*[#   7]+0.116*[#   8]+0.108*[#   1]+
          +0.108*[#   5]+0.051*[#   2]+0.051*[#   6]+
    |psi|^2 = 0.780
==== e(   8) =    12.32715 eV ====
     psi = 0.169*[#   3]+0.169*[#   4]+0.169*[#   7]+0.169*[#   8]+
    |psi|^2 = 0.674

 k =  -0.3535533906 -0.3535533906  0.3535533906
==== e(   1) =    -3.16337 eV ====
     psi = 0.386*[#   1]+0.386*[#   5]+0.038*[#   2]+0.038*[#   3]+0.038*[#   4]+
          +0.038*[#   6]+0.038*[#   7]+0.038*[#   8]+
    |psi|^2 = 0.997
==== e(   2) =    -0.53527 eV ====
     psi = 0.126*[#   2]+0.126*[#   3]+0.126*[#   4]+0.126*[#   6]+0.126*[#   7]+
          +0.126*[#   8]+0.116*[#   1]+0.116*[#   5]+
    |psi|^2 = 0.988
==== e(   3) =     5.27886 eV ====
     psi = 0.295*[#   4]+0.295*[#   8]+0.186*[#   3]+0.186*[#   7]+0.013*[#   2]+
          +0.013*[#   6]+
    |psi|^2 = 0.989
==== e(   4) =     5.27886 eV ====
     psi = 0.317*[#   2]+0.317*[#   6]+0.143*[#   3]+0.143*[#   7]+0.034*[#   4]+
          +0.034*[#   8]+
    |psi|^2 = 0.989
==== e(   5) =     8.00212 eV ====
     psi = 0.342*[#   1]+0.342*[#   5]+0.039*[#   2]+0.039*[#   3]+0.039*[#   4]+
          +0.039*[#   6]+0.039*[#   7]+0.039*[#   8]+
    |psi|^2 = 0.918
==== e(   6) =     9.71048 eV ====
     psi = 0.210*[#   3]+0.210*[#   7]+0.164*[#   4]+0.164*[#   8]+0.007*[#   2]+
          +0.007*[#   6]+
    |psi|^2 = 0.762
==== e(   7) =     9.71048 eV ====
     psi = 0.247*[#   2]+0.247*[#   6]+0.090*[#   4]+0.090*[#   8]+0.044*[#   3]+
          +0.044*[#   7]+
    |psi|^2 = 0.762
==== e(   8) =    14.15700 eV ====
     psi = 0.022*[#   2]+0.022*[#   3]+0.022*[#   4]+0.022*[#   6]+0.022*[#   7]+
          +0.022*[#   8]+0.018*[#   1]+0.018*[#   5]+
    |psi|^2 = 0.167

 k =  -0.5303300859 -0.1767766953  0.5303300859
==== e(   1) =    -2.77943 eV ====
     psi = 0.326*[#   1]+0.326*[#   5]+0.141*[#   4]+0.141*[#   8]+0.015*[#   2]+
          +0.015*[#   3]+0.015*[#   6]+0.015*[#   7]+
    |psi|^2 = 0.996
==== e(   2) =     0.08257 eV ====
     psi = 0.212*[#   1]+0.212*[#   5]+0.132*[#   4]+0.132*[#   8]+0.076*[#   2]+
          +0.076*[#   3]+0.076*[#   6]+0.076*[#   7]+
    |psi|^2 = 0.992
==== e(   3) =     2.89776 eV ====
     psi = 0.190*[#   4]+0.190*[#   8]+0.131*[#   2]+0.131*[#   3]+0.131*[#   6]+
          +0.131*[#   7]+0.044*[#   1]+0.044*[#   5]+
    |psi|^2 = 0.993
==== e(   4) =     4.24528 eV ====
     psi = 0.248*[#   2]+0.248*[#   3]+0.248*[#   6]+0.248*[#   7]+
    |psi|^2 = 0.993
==== e(   5) =     7.91824 eV ====
     psi = 0.266*[#   4]+0.266*[#   8]+0.126*[#   1]+0.126*[#   5]+0.010*[#   2]+
          +0.010*[#   3]+0.010*[#   6]+0.010*[#   7]+
    |psi|^2 = 0.823
==== e(   6) =    10.87647 eV ====
     psi = 0.112*[#   4]+0.112*[#   8]+0.080*[#   1]+0.080*[#   5]+0.030*[#   2]+
          +0.030*[#   3]+0.030*[#   6]+0.030*[#   7]+
    |psi|^2 = 0.504
==== e(   7) =    12.20944 eV ====
     psi = 0.116*[#   2]+0.116*[#   3]+0.116*[#   6]+0.116*[#   7]+0.108*[#   1]+
          +0.108*[#   5]+0.051*[#   4]+0.051*[#   8]+
    |psi|^2 = 0.780
==== e(   8) =    12.32715 eV ====
     psi = 0.169*[#   2]+0.169*[#   3]+0.169*[#   6]+0.169*[#   7]+
    |psi|^2 = 0.674

 k =   0.0000000000 -0.7071067812  0.0000000000
==== e(   1) =    -1.34796 eV ====
     psi = 0.534*[#   1]+0.416*[#   8]+0.025*[#   5]+0.019*[#   4]+
    |psi|^2 = 0.994
==== e(   2) =    -1.34796 eV ====
     psi = 0.534*[#   5]+0.416*[#   4]+0.025*[#   1]+0.019*[#   8]+
    |psi|^2 = 0.994
==== e(   3) =     3.58802 eV ====
     psi = 0.394*[#   3]+0.394*[#   6]+0.103*[#   2]+0.103*[#   7]+
    |psi|^2 = 0.995
==== e(   4) =     3.58802 eV ====
     psi = 0.394*[#   2]+0.394*[#   7]+0.103*[#   3]+0.103*[#   6]+
    |psi|^2 = 0.995
==== e(   5) =     7.10523 eV ====
     psi = 0.421*[#   8]+0.296*[#   1]+0.066*[#   4]+0.046*[#   5]+
    |psi|^2 = 0.829
==== e(   6) =     7.10523 eV ====
     psi = 0.421*[#   4]+0.296*[#   5]+0.066*[#   8]+0.046*[#   1]+
    |psi|^2 = 0.829
==== e(   7) =    16.56166 eV ====
     psi = 0.354*[#   2]+0.354*[#   7]+0.107*[#   3]+0.107*[#   6]+
    |psi|^2 = 0.921
==== e(   8) =    16.56166 eV ====
     psi = 0.354*[#   3]+0.354*[#   6]+0.107*[#   2]+0.107*[#   7]+
    |psi|^2 = 0.921

 k =  -0.1767766953 -0.5303300859  0.5303300859
==== e(   1) =    -2.77943 eV ====
     psi = 0.326*[#   1]+0.326*[#   5]+0.141*[#   3]+0.141*[#   7]+0.015*[#   2]+
          +0.015*[#   4]+0.015*[#   6]+0.015*[#   8]+
    |psi|^2 = 0.996
==== e(   2) =     0.08257 eV ====
     psi = 0.212*[#   1]+0.212*[#   5]+0.132*[#   3]+0.132*[#   7]+0.076*[#   2]+
          +0.076*[#   4]+0.076*[#   6]+0.076*[#   8]+
    |psi|^2 = 0.992
==== e(   3) =     2.89776 eV ====
     psi = 0.190*[#   3]+0.190*[#   7]+0.131*[#   2]+0.131*[#   4]+0.131*[#   6]+
          +0.131*[#   8]+0.044*[#   1]+0.044*[#   5]+
    |psi|^2 = 0.993
==== e(   4) =     4.24528 eV ====
     psi = 0.248*[#   2]+0.248*[#   4]+0.248*[#   6]+0.248*[#   8]+
    |psi|^2 = 0.993
==== e(   5) =     7.91824 eV ====
     psi = 0.266*[#   3]+0.266*[#   7]+0.126*[#   1]+0.126*[#   5]+0.010*[#   2]+
          +0.010*[#   4]+0.010*[#   6]+0.010*[#   8]+
    |psi|^2 = 0.823
==== e(   6) =    10.87647 eV ====
     psi = 0.112*[#   3]+0.112*[#   7]+0.080*[#   1]+0.080*[#   5]+0.030*[#   2]+
          +0.030*[#   4]+0.030*[#   6]+0.030*[#   8]+
    |psi|^2 = 0.504
==== e(   7) =    12.20944 eV ====
     psi = 0.116*[#   2]+0.116*[#   4]+0.116*[#   6]+0.116*[#   8]+0.108*[#   1]+
          +0.108*[#   5]+0.051*[#   3]+0.051*[#   7]+
    |psi|^2 = 0.780
==== e(   8) =    12.32715 eV ====
     psi = 0.169*[#   2]+0.169*[#   4]+0.169*[#   6]+0.169*[#   8]+
    |psi|^2 = 0.674

 k =  -0.3535533906 -0.3535533906  0.7071067812
==== e(   1) =    -3.45920 eV ====
     psi = 0.334*[#   1]+0.334*[#   5]+0.073*[#   3]+0.073*[#   4]+0.073*[#   7]+
          +0.073*[#   8]+0.018*[#   2]+0.018*[#   6]+
    |psi|^2 = 0.996
==== e(   2) =     0.99347 eV ====
     psi = 0.207*[#   1]+0.207*[#   5]+0.145*[#   2]+0.145*[#   6]+0.072*[#   3]+
          +0.072*[#   4]+0.072*[#   7]+0.072*[#   8]+
    |psi|^2 = 0.993
==== e(   3) =     2.66958 eV ====
     psi = 0.240*[#   2]+0.240*[#   6]+0.109*[#   3]+0.109*[#   4]+0.109*[#   7]+
          +0.109*[#   8]+0.038*[#   1]+0.038*[#   5]+
    |psi|^2 = 0.991
==== e(   4) =     5.14223 eV ====
     psi = 0.247*[#   3]+0.247*[#   4]+0.247*[#   7]+0.247*[#   8]+
    |psi|^2 = 0.988
==== e(   5) =     8.85351 eV ====
     psi = 0.292*[#   2]+0.292*[#   6]+0.102*[#   1]+0.102*[#   5]+0.012*[#   3]+
          +0.012*[#   4]+0.012*[#   7]+0.012*[#   8]+
    |psi|^2 = 0.835
==== e(   6) =    11.18494 eV ====
     psi = 0.226*[#   3]+0.226*[#   4]+0.226*[#   7]+0.226*[#   8]+
    |psi|^2 = 0.904
==== e(   7) =    11.62668 eV ====
     psi = 0.147*[#   2]+0.147*[#   6]+0.077*[#   1]+0.077*[#   5]+0.048*[#   3]+
          +0.048*[#   4]+0.048*[#   7]+0.048*[#   8]+
    |psi|^2 = 0.643
==== e(   8) =    12.59326 eV ====
     psi = 0.152*[#   1]+0.152*[#   5]+0.097*[#   3]+0.097*[#   4]+0.097*[#   7]+
          +0.097*[#   8]+0.003*[#   2]+0.003*[#   6]+
    |psi|^2 = 0.698

 k =   0.1767766953 -0.8838834765  0.1767766953
==== e(   1) =    -2.77943 eV ====
     psi = 0.326*[#   1]+0.326*[#   5]+0.141*[#   4]+0.141*[#   8]+0.015*[#   2]+
          +0.015*[#   3]+0.015*[#   6]+0.015*[#   7]+
    |psi|^2 = 0.996
==== e(   2) =     0.08257 eV ====
     psi = 0.212*[#   1]+0.212*[#   5]+0.132*[#   4]+0.132*[#   8]+0.076*[#   2]+
          +0.076*[#   3]+0.076*[#   6]+0.076*[#   7]+
    |psi|^2 = 0.992
==== e(   3) =     2.89776 eV ====
     psi = 0.190*[#   4]+0.190*[#   8]+0.131*[#   2]+0.131*[#   3]+0.131*[#   6]+
          +0.131*[#   7]+0.044*[#   1]+0.044*[#   5]+
    |psi|^2 = 0.993
==== e(   4) =     4.24528 eV ====
     psi = 0.248*[#   2]+0.248*[#   3]+0.248*[#   6]+0.248*[#   7]+
    |psi|^2 = 0.993
==== e(   5) =     7.91824 eV ====
     psi = 0.266*[#   4]+0.266*[#   8]+0.126*[#   1]+0.126*[#   5]+0.010*[#   2]+
          +0.010*[#   3]+0.010*[#   6]+0.010*[#   7]+
    |psi|^2 = 0.823
==== e(   6) =    10.87647 eV ====
     psi = 0.112*[#   4]+0.112*[#   8]+0.080*[#   1]+0.080*[#   5]+0.030*[#   2]+
          +0.030*[#   3]+0.030*[#   6]+0.030*[#   7]+
    |psi|^2 = 0.504
==== e(   7) =    12.20944 eV ====
     psi = 0.116*[#   2]+0.116*[#   3]+0.116*[#   6]+0.116*[#   7]+0.108*[#   1]+
          +0.108*[#   5]+0.051*[#   4]+0.051*[#   8]+
    |psi|^2 = 0.780
==== e(   8) =    12.32715 eV ====
     psi = 0.169*[#   2]+0.169*[#   3]+0.169*[#   6]+0.169*[#   7]+
    |psi|^2 = 0.674

 k =   0.0000000000 -0.7071067812  0.3535533906
==== e(   1) =    -1.17748 eV ====
     psi = 0.318*[#   1]+0.279*[#   5]+0.106*[#   7]+0.106*[#   8]+0.093*[#   3]+
          +0.093*[#   4]+
    |psi|^2 = 0.995
==== e(   2) =    -1.17748 eV ====
     psi = 0.318*[#   5]+0.279*[#   1]+0.106*[#   3]+0.106*[#   4]+0.093*[#   7]+
          +0.093*[#   8]+
    |psi|^2 = 0.995
==== e(   3) =     2.56310 eV ====
     psi = 0.234*[#   2]+0.186*[#   7]+0.186*[#   8]+0.150*[#   6]+0.119*[#   3]+
          +0.119*[#   4]+
    |psi|^2 = 0.994
==== e(   4) =     2.56310 eV ====
     psi = 0.234*[#   6]+0.186*[#   3]+0.186*[#   4]+0.150*[#   2]+0.119*[#   7]+
          +0.119*[#   8]+
    |psi|^2 = 0.994
==== e(   5) =    10.71113 eV ====
     psi = 0.183*[#   6]+0.114*[#   2]+0.057*[#   3]+0.057*[#   4]+0.035*[#   7]+
          +0.035*[#   8]+
    |psi|^2 = 0.481
==== e(   6) =    10.71113 eV ====
     psi = 0.183*[#   2]+0.114*[#   6]+0.057*[#   7]+0.057*[#   8]+0.035*[#   3]+
          +0.035*[#   4]+
    |psi|^2 = 0.481
==== e(   7) =    11.41545 eV ====
     psi = 0.286*[#   5]+0.233*[#   3]+0.233*[#   4]+0.030*[#   1]+0.024*[#   7]+
          +0.024*[#   8]+
    |psi|^2 = 0.830
==== e(   8) =    11.41545 eV ====
     psi = 0.286*[#   1]+0.233*[#   7]+0.233*[#   8]+0.030*[#   5]+0.024*[#   3]+
          +0.024*[#   4]+
    |psi|^2 = 0.830

 k =  -0.7071067812  0.0000000000  0.0000000000
==== e(   1) =    -1.34796 eV ====
     psi = 0.530*[#   1]+0.413*[#   7]+0.029*[#   5]+0.022*[#   3]+
    |psi|^2 = 0.994
==== e(   2) =    -1.34796 eV ====
     psi = 0.530*[#   5]+0.413*[#   3]+0.029*[#   1]+0.022*[#   7]+
    |psi|^2 = 0.994
==== e(   3) =     3.58802 eV ====
     psi = 0.482*[#   2]+0.482*[#   8]+0.015*[#   4]+0.015*[#   6]+
    |psi|^2 = 0.995
==== e(   4) =     3.58802 eV ====
     psi = 0.482*[#   4]+0.482*[#   6]+0.015*[#   2]+0.015*[#   8]+
    |psi|^2 = 0.995
==== e(   5) =     7.10523 eV ====
     psi = 0.433*[#   7]+0.305*[#   1]+0.054*[#   3]+0.038*[#   5]+
    |psi|^2 = 0.829
==== e(   6) =     7.10523 eV ====
     psi = 0.433*[#   3]+0.305*[#   5]+0.054*[#   7]+0.038*[#   1]+
    |psi|^2 = 0.829
==== e(   7) =    16.56166 eV ====
     psi = 0.406*[#   2]+0.406*[#   8]+0.054*[#   4]+0.054*[#   6]+
    |psi|^2 = 0.921
==== e(   8) =    16.56166 eV ====
     psi = 0.406*[#   4]+0.406*[#   6]+0.054*[#   2]+0.054*[#   8]+
    |psi|^2 = 0.921

 k =  -0.8838834765  0.1767766953  0.1767766953
==== e(   1) =    -2.77943 eV ====
     psi = 0.326*[#   1]+0.326*[#   5]+0.141*[#   3]+0.141*[#   7]+0.015*[#   2]+
          +0.015*[#   4]+0.015*[#   6]+0.015*[#   8]+
    |psi|^2 = 0.996
==== e(   2) =     0.08257 eV ====
     psi = 0.212*[#   1]+0.212*[#   5]+0.132*[#   3]+0.132*[#   7]+0.076*[#   2]+
          +0.076*[#   4]+0.076*[#   6]+0.076*[#   8]+
    |psi|^2 = 0.992
==== e(   3) =     2.89776 eV ====
     psi = 0.190*[#   3]+0.190*[#   7]+0.131*[#   2]+0.131*[#   4]+0.131*[#   6]+
          +0.131*[#   8]+0.044*[#   1]+0.044*[#   5]+
    |psi|^2 = 0.993
==== e(   4) =     4.24528 eV ====
     psi = 0.248*[#   2]+0.248*[#   4]+0.248*[#   6]+0.248*[#   8]+
    |psi|^2 = 0.993
==== e(   5) =     7.91824 eV ====
     psi = 0.266*[#   3]+0.266*[#   7]+0.126*[#   1]+0.126*[#   5]+0.010*[#   2]+
          +0.010*[#   4]+0.010*[#   6]+0.010*[#   8]+
    |psi|^2 = 0.823
==== e(   6) =    10.87647 eV ====
     psi = 0.112*[#   3]+0.112*[#   7]+0.080*[#   1]+0.080*[#   5]+0.030*[#   2]+
          +0.030*[#   4]+0.030*[#   6]+0.030*[#   8]+
    |psi|^2 = 0.504
==== e(   7) =    12.20944 eV ====
     psi = 0.116*[#   2]+0.116*[#   4]+0.116*[#   6]+0.116*[#   8]+0.108*[#   1]+
          +0.108*[#   5]+0.051*[#   3]+0.051*[#   7]+
    |psi|^2 = 0.780
==== e(   8) =    12.32715 eV ====
     psi = 0.169*[#   2]+0.169*[#   4]+0.169*[#   6]+0.169*[#   8]+
    |psi|^2 = 0.674

 k =  -0.3535533906 -0.3535533906 -0.3535533906
==== e(   1) =    -3.16337 eV ====
     psi = 0.386*[#   1]+0.386*[#   5]+0.038*[#   2]+0.038*[#   3]+0.038*[#   4]+
          +0.038*[#   6]+0.038*[#   7]+0.038*[#   8]+
    |psi|^2 = 0.997
==== e(   2) =    -0.53527 eV ====
     psi = 0.126*[#   2]+0.126*[#   3]+0.126*[#   4]+0.126*[#   6]+0.126*[#   7]+
          +0.126*[#   8]+0.116*[#   1]+0.116*[#   5]+
    |psi|^2 = 0.988
==== e(   3) =     5.27886 eV ====
     psi = 0.229*[#   4]+0.229*[#   8]+0.227*[#   3]+0.227*[#   7]+0.038*[#   2]+
          +0.038*[#   6]+
    |psi|^2 = 0.989
==== e(   4) =     5.27886 eV ====
     psi = 0.291*[#   2]+0.291*[#   6]+0.103*[#   3]+0.103*[#   7]+0.100*[#   4]+
          +0.100*[#   8]+
    |psi|^2 = 0.989
==== e(   5) =     8.00212 eV ====
     psi = 0.342*[#   1]+0.342*[#   5]+0.039*[#   2]+0.039*[#   3]+0.039*[#   4]+
          +0.039*[#   6]+0.039*[#   7]+0.039*[#   8]+
    |psi|^2 = 0.918
==== e(   6) =     9.71048 eV ====
     psi = 0.196*[#   3]+0.196*[#   7]+0.185*[#   4]+0.185*[#   8]+
    |psi|^2 = 0.762
==== e(   7) =     9.71048 eV ====
     psi = 0.254*[#   2]+0.254*[#   6]+0.069*[#   4]+0.069*[#   8]+0.058*[#   3]+
          +0.058*[#   7]+
    |psi|^2 = 0.762
==== e(   8) =    14.15700 eV ====
     psi = 0.022*[#   2]+0.022*[#   3]+0.022*[#   4]+0.022*[#   6]+0.022*[#   7]+
          +0.022*[#   8]+0.018*[#   1]+0.018*[#   5]+
    |psi|^2 = 0.167

Lowdin Charges:

     Atom #   1: total charge =   3.9663, s =  1.1336,
     Atom #   1: total charge =   3.9663, p =  2.8328, pz=  0.9443, px=  0.9443, py=  0.9443,
     Atom #   2: total charge =   3.9663, s =  1.1336,
     Atom #   2: total charge =   3.9663, p =  2.8328, pz=  0.9443, px=  0.9443, py=  0.9443,
     Spilling Parameter:   0.0084

     PROJWFC      :     1.17s CPU         1.78s WALL


   This run was terminated on:  11: 4:27  19Oct2019

=------------------------------------------------------------------------------=
   JOB DONE.
=------------------------------------------------------------------------------=
# mpiexec: finished at Sat Oct 19 11:04:27 BST 2019
