
     Program PWSCF v.6.1 (svn rev. 13369) starts on 22Jun2019 at 14:47: 4

     This program is part of the open-source Quantum ESPRESSO suite
     for quantum simulation of materials; please cite
         "P. Giannozzi et al., J. Phys.:Condens. Matter 21 395502 (2009);
          URL http://www.quantum-espresso.org",
     in publications or presentations arising from this work. More details at
     http://www.quantum-espresso.org/quote

     Parallel version (MPI), running on     1 processors
     Reading input from vc-relax.in

     Current dimensions of program PWSCF are:
     Max number of different atomic species (ntypx) = 10
     Max number of k-points (npk) =  40000
     Max angular momentum in pseudopotentials (lmaxx) =  3

     Subspace diagonalization in iterative solution of the eigenvalue problem:
     a serial algorithm will be used

     Message from routine setup:
     no reason to have ecutrho>4*ecutwfc

     G-vector sticks info
     --------------------
     sticks:   dense  smooth     PW     G-vecs:    dense   smooth      PW
     Sum         859     433    139                16625     5961    1067



     bravais-lattice index     =            2
     lattice parameter (alat)  =      10.2000  a.u.
     unit-cell volume          =     265.3020 (a.u.)^3
     number of atoms/cell      =            2
     number of atomic types    =            1
     number of electrons       =         8.00
     number of Kohn-Sham states=            4
     kinetic-energy cutoff     =      30.0000  Ry
     charge density cutoff     =     240.0000  Ry
     convergence threshold     =      1.0E-08
     mixing beta               =       0.7000
     number of iterations used =            8  plain     mixing
     Exchange-correlation      =  SLA  PW   PBE  PBE ( 1  4  3  4 0 0)
     nstep                     =           50


     celldm(1)=  10.200000  celldm(2)=   0.000000  celldm(3)=   0.000000
     celldm(4)=   0.000000  celldm(5)=   0.000000  celldm(6)=   0.000000

     crystal axes: (cart. coord. in units of alat)
               a(1) = (  -0.500000   0.000000   0.500000 )
               a(2) = (   0.000000   0.500000   0.500000 )
               a(3) = (  -0.500000   0.500000   0.000000 )

     reciprocal axes: (cart. coord. in units 2 pi/alat)
               b(1) = ( -1.000000 -1.000000  1.000000 )
               b(2) = (  1.000000  1.000000  1.000000 )
               b(3) = ( -1.000000  1.000000 -1.000000 )


     PseudoPot. # 1 for Si read from file:
     ./Si.pbe-rrkj.UPF
     MD5 check sum: cf7ab5690cd9a85b22c4813f7e365554
     Pseudo is Norm-conserving, Zval =  4.0
     Generated by new atomic code, or converted to UPF format
     Using radial grid of  883 points,  3 beta functions with:
                l(1) =   0
                l(2) =   0
                l(3) =   1

     atomic species   valence    mass     pseudopotential
        Si             4.00    28.08600     Si( 1.00)

     48 Sym. Ops., with inversion, found (24 have fractional translation)


                                    s                        frac. trans.

      isym =  1     identity

 cryst.   s( 1) = (     1          0          0      )
                  (     0          1          0      )
                  (     0          0          1      )

 cart.    s( 1) = (  1.0000000  0.0000000  0.0000000 )
                  (  0.0000000  1.0000000  0.0000000 )
                  (  0.0000000  0.0000000  1.0000000 )


      isym =  2     180 deg rotation - cart. axis [0,0,1]

 cryst.   s( 2) = (     0          1         -1      )
                  (     1          0         -1      )
                  (     0          0         -1      )

 cart.    s( 2) = ( -1.0000000  0.0000000  0.0000000 )
                  (  0.0000000 -1.0000000  0.0000000 )
                  (  0.0000000  0.0000000  1.0000000 )


      isym =  3     180 deg rotation - cart. axis [0,1,0]

 cryst.   s( 3) = (    -1          0          0      )
                  (    -1          0          1      )
                  (    -1          1          0      )

 cart.    s( 3) = ( -1.0000000  0.0000000  0.0000000 )
                  (  0.0000000  1.0000000  0.0000000 )
                  (  0.0000000  0.0000000 -1.0000000 )


      isym =  4     180 deg rotation - cart. axis [1,0,0]

 cryst.   s( 4) = (     0         -1          1      )
                  (     0         -1          0      )
                  (     1         -1          0      )

 cart.    s( 4) = (  1.0000000  0.0000000  0.0000000 )
                  (  0.0000000 -1.0000000  0.0000000 )
                  (  0.0000000  0.0000000 -1.0000000 )


      isym =  5     180 deg rotation - cart. axis [1,1,0]

 cryst.   s( 5) = (     0         -1          0      )    f =( -0.2500000 )
                  (    -1          0          0      )       ( -0.2500000 )
                  (     0          0         -1      )       ( -0.2500000 )

 cart.    s( 5) = (  0.0000000  1.0000000  0.0000000 )    f =(  0.2500000 )
                  (  1.0000000  0.0000000  0.0000000 )       ( -0.2500000 )
                  (  0.0000000  0.0000000 -1.0000000 )       ( -0.2500000 )


      isym =  6     180 deg rotation - cart. axis [1,-1,0]

 cryst.   s( 6) = (    -1          0          1      )    f =( -0.2500000 )
                  (     0         -1          1      )       ( -0.2500000 )
                  (     0          0          1      )       ( -0.2500000 )

 cart.    s( 6) = (  0.0000000 -1.0000000  0.0000000 )    f =(  0.2500000 )
                  ( -1.0000000  0.0000000  0.0000000 )       ( -0.2500000 )
                  (  0.0000000  0.0000000 -1.0000000 )       ( -0.2500000 )


      isym =  7      90 deg rotation - cart. axis [0,0,-1]

 cryst.   s( 7) = (     0          1          0      )    f =( -0.2500000 )
                  (     0          1         -1      )       ( -0.2500000 )
                  (    -1          1          0      )       ( -0.2500000 )

 cart.    s( 7) = (  0.0000000  1.0000000  0.0000000 )    f =(  0.2500000 )
                  ( -1.0000000  0.0000000  0.0000000 )       ( -0.2500000 )
                  (  0.0000000  0.0000000  1.0000000 )       ( -0.2500000 )


      isym =  8      90 deg rotation - cart. axis [0,0,1]

 cryst.   s( 8) = (     1          0         -1      )    f =( -0.2500000 )
                  (     1          0          0      )       ( -0.2500000 )
                  (     1         -1          0      )       ( -0.2500000 )

 cart.    s( 8) = (  0.0000000 -1.0000000  0.0000000 )    f =(  0.2500000 )
                  (  1.0000000  0.0000000  0.0000000 )       ( -0.2500000 )
                  (  0.0000000  0.0000000  1.0000000 )       ( -0.2500000 )


      isym =  9     180 deg rotation - cart. axis [1,0,1]

 cryst.   s( 9) = (    -1          0          0      )    f =( -0.2500000 )
                  (     0          0         -1      )       ( -0.2500000 )
                  (     0         -1          0      )       ( -0.2500000 )

 cart.    s( 9) = (  0.0000000  0.0000000  1.0000000 )    f =(  0.2500000 )
                  (  0.0000000 -1.0000000  0.0000000 )       ( -0.2500000 )
                  (  1.0000000  0.0000000  0.0000000 )       ( -0.2500000 )


      isym = 10     180 deg rotation - cart. axis [-1,0,1]

 cryst.   s(10) = (     1          0          0      )    f =( -0.2500000 )
                  (     1         -1          0      )       ( -0.2500000 )
                  (     1          0         -1      )       ( -0.2500000 )

 cart.    s(10) = (  0.0000000  0.0000000 -1.0000000 )    f =(  0.2500000 )
                  (  0.0000000 -1.0000000  0.0000000 )       ( -0.2500000 )
                  ( -1.0000000  0.0000000  0.0000000 )       ( -0.2500000 )


      isym = 11      90 deg rotation - cart. axis [0,1,0]

 cryst.   s(11) = (     0          1         -1      )    f =( -0.2500000 )
                  (    -1          1          0      )       ( -0.2500000 )
                  (     0          1          0      )       ( -0.2500000 )

 cart.    s(11) = (  0.0000000  0.0000000  1.0000000 )    f =(  0.2500000 )
                  (  0.0000000  1.0000000  0.0000000 )       ( -0.2500000 )
                  ( -1.0000000  0.0000000  0.0000000 )       ( -0.2500000 )


      isym = 12      90 deg rotation - cart. axis [0,-1,0]

 cryst.   s(12) = (     0         -1          1      )    f =( -0.2500000 )
                  (     0          0          1      )       ( -0.2500000 )
                  (    -1          0          1      )       ( -0.2500000 )

 cart.    s(12) = (  0.0000000  0.0000000 -1.0000000 )    f =(  0.2500000 )
                  (  0.0000000  1.0000000  0.0000000 )       ( -0.2500000 )
                  (  1.0000000  0.0000000  0.0000000 )       ( -0.2500000 )


      isym = 13     180 deg rotation - cart. axis [0,1,1]

 cryst.   s(13) = (    -1          1          0      )    f =( -0.2500000 )
                  (     0          1          0      )       ( -0.2500000 )
                  (     0          1         -1      )       ( -0.2500000 )

 cart.    s(13) = ( -1.0000000  0.0000000  0.0000000 )    f =(  0.2500000 )
                  (  0.0000000  0.0000000  1.0000000 )       ( -0.2500000 )
                  (  0.0000000  1.0000000  0.0000000 )       ( -0.2500000 )


      isym = 14     180 deg rotation - cart. axis [0,1,-1]

 cryst.   s(14) = (     0          0         -1      )    f =( -0.2500000 )
                  (     0         -1          0      )       ( -0.2500000 )
                  (    -1          0          0      )       ( -0.2500000 )

 cart.    s(14) = ( -1.0000000  0.0000000  0.0000000 )    f =(  0.2500000 )
                  (  0.0000000  0.0000000 -1.0000000 )       ( -0.2500000 )
                  (  0.0000000 -1.0000000  0.0000000 )       ( -0.2500000 )


      isym = 15      90 deg rotation - cart. axis [-1,0,0]

 cryst.   s(15) = (     0          0          1      )    f =( -0.2500000 )
                  (    -1          0          1      )       ( -0.2500000 )
                  (     0         -1          1      )       ( -0.2500000 )

 cart.    s(15) = (  1.0000000  0.0000000  0.0000000 )    f =(  0.2500000 )
                  (  0.0000000  0.0000000  1.0000000 )       ( -0.2500000 )
                  (  0.0000000 -1.0000000  0.0000000 )       ( -0.2500000 )


      isym = 16      90 deg rotation - cart. axis [1,0,0]

 cryst.   s(16) = (     1         -1          0      )    f =( -0.2500000 )
                  (     1          0         -1      )       ( -0.2500000 )
                  (     1          0          0      )       ( -0.2500000 )

 cart.    s(16) = (  1.0000000  0.0000000  0.0000000 )    f =(  0.2500000 )
                  (  0.0000000  0.0000000 -1.0000000 )       ( -0.2500000 )
                  (  0.0000000  1.0000000  0.0000000 )       ( -0.2500000 )


      isym = 17     120 deg rotation - cart. axis [-1,-1,-1]

 cryst.   s(17) = (    -1          0          1      )
                  (    -1          1          0      )
                  (    -1          0          0      )

 cart.    s(17) = (  0.0000000  1.0000000  0.0000000 )
                  (  0.0000000  0.0000000  1.0000000 )
                  (  1.0000000  0.0000000  0.0000000 )


      isym = 18     120 deg rotation - cart. axis [-1,1,1]

 cryst.   s(18) = (     0          1          0      )
                  (     0          0          1      )
                  (     1          0          0      )

 cart.    s(18) = (  0.0000000 -1.0000000  0.0000000 )
                  (  0.0000000  0.0000000  1.0000000 )
                  ( -1.0000000  0.0000000  0.0000000 )


      isym = 19     120 deg rotation - cart. axis [1,1,-1]

 cryst.   s(19) = (     1          0         -1      )
                  (     0          0         -1      )
                  (     0          1         -1      )

 cart.    s(19) = (  0.0000000  1.0000000  0.0000000 )
                  (  0.0000000  0.0000000 -1.0000000 )
                  ( -1.0000000  0.0000000  0.0000000 )


      isym = 20     120 deg rotation - cart. axis [1,-1,1]

 cryst.   s(20) = (     0         -1          0      )
                  (     1         -1          0      )
                  (     0         -1          1      )

 cart.    s(20) = (  0.0000000 -1.0000000  0.0000000 )
                  (  0.0000000  0.0000000 -1.0000000 )
                  (  1.0000000  0.0000000  0.0000000 )


      isym = 21     120 deg rotation - cart. axis [1,1,1]

 cryst.   s(21) = (     0          0         -1      )
                  (     0          1         -1      )
                  (     1          0         -1      )

 cart.    s(21) = (  0.0000000  0.0000000  1.0000000 )
                  (  1.0000000  0.0000000  0.0000000 )
                  (  0.0000000  1.0000000  0.0000000 )


      isym = 22     120 deg rotation - cart. axis [-1,1,-1]

 cryst.   s(22) = (    -1          1          0      )
                  (    -1          0          0      )
                  (    -1          0          1      )

 cart.    s(22) = (  0.0000000  0.0000000  1.0000000 )
                  ( -1.0000000  0.0000000  0.0000000 )
                  (  0.0000000 -1.0000000  0.0000000 )


      isym = 23     120 deg rotation - cart. axis [1,-1,-1]

 cryst.   s(23) = (     0          0          1      )
                  (     1          0          0      )
                  (     0          1          0      )

 cart.    s(23) = (  0.0000000  0.0000000 -1.0000000 )
                  ( -1.0000000  0.0000000  0.0000000 )
                  (  0.0000000  1.0000000  0.0000000 )


      isym = 24     120 deg rotation - cart. axis [-1,-1,1]

 cryst.   s(24) = (     1         -1          0      )
                  (     0         -1          1      )
                  (     0         -1          0      )

 cart.    s(24) = (  0.0000000  0.0000000 -1.0000000 )
                  (  1.0000000  0.0000000  0.0000000 )
                  (  0.0000000 -1.0000000  0.0000000 )


      isym = 25     inversion

 cryst.   s(25) = (    -1          0          0      )    f =( -0.2500000 )
                  (     0         -1          0      )       ( -0.2500000 )
                  (     0          0         -1      )       ( -0.2500000 )

 cart.    s(25) = ( -1.0000000  0.0000000  0.0000000 )    f =(  0.2500000 )
                  (  0.0000000 -1.0000000  0.0000000 )       ( -0.2500000 )
                  (  0.0000000  0.0000000 -1.0000000 )       ( -0.2500000 )


      isym = 26     inv. 180 deg rotation - cart. axis [0,0,1]

 cryst.   s(26) = (     0         -1          1      )    f =( -0.2500000 )
                  (    -1          0          1      )       ( -0.2500000 )
                  (     0          0          1      )       ( -0.2500000 )

 cart.    s(26) = (  1.0000000  0.0000000  0.0000000 )    f =(  0.2500000 )
                  (  0.0000000  1.0000000  0.0000000 )       ( -0.2500000 )
                  (  0.0000000  0.0000000 -1.0000000 )       ( -0.2500000 )


      isym = 27     inv. 180 deg rotation - cart. axis [0,1,0]

 cryst.   s(27) = (     1          0          0      )    f =( -0.2500000 )
                  (     1          0         -1      )       ( -0.2500000 )
                  (     1         -1          0      )       ( -0.2500000 )

 cart.    s(27) = (  1.0000000  0.0000000  0.0000000 )    f =(  0.2500000 )
                  (  0.0000000 -1.0000000  0.0000000 )       ( -0.2500000 )
                  (  0.0000000  0.0000000  1.0000000 )       ( -0.2500000 )


      isym = 28     inv. 180 deg rotation - cart. axis [1,0,0]

 cryst.   s(28) = (     0          1         -1      )    f =( -0.2500000 )
                  (     0          1          0      )       ( -0.2500000 )
                  (    -1          1          0      )       ( -0.2500000 )

 cart.    s(28) = ( -1.0000000  0.0000000  0.0000000 )    f =(  0.2500000 )
                  (  0.0000000  1.0000000  0.0000000 )       ( -0.2500000 )
                  (  0.0000000  0.0000000  1.0000000 )       ( -0.2500000 )


      isym = 29     inv. 180 deg rotation - cart. axis [1,1,0]

 cryst.   s(29) = (     0          1          0      )
                  (     1          0          0      )
                  (     0          0          1      )

 cart.    s(29) = (  0.0000000 -1.0000000  0.0000000 )
                  ( -1.0000000  0.0000000  0.0000000 )
                  (  0.0000000  0.0000000  1.0000000 )


      isym = 30     inv. 180 deg rotation - cart. axis [1,-1,0]

 cryst.   s(30) = (     1          0         -1      )
                  (     0          1         -1      )
                  (     0          0         -1      )

 cart.    s(30) = (  0.0000000  1.0000000  0.0000000 )
                  (  1.0000000  0.0000000  0.0000000 )
                  (  0.0000000  0.0000000  1.0000000 )


      isym = 31     inv.  90 deg rotation - cart. axis [0,0,-1]

 cryst.   s(31) = (     0         -1          0      )
                  (     0         -1          1      )
                  (     1         -1          0      )

 cart.    s(31) = (  0.0000000 -1.0000000  0.0000000 )
                  (  1.0000000  0.0000000  0.0000000 )
                  (  0.0000000  0.0000000 -1.0000000 )


      isym = 32     inv.  90 deg rotation - cart. axis [0,0,1]

 cryst.   s(32) = (    -1          0          1      )
                  (    -1          0          0      )
                  (    -1          1          0      )

 cart.    s(32) = (  0.0000000  1.0000000  0.0000000 )
                  ( -1.0000000  0.0000000  0.0000000 )
                  (  0.0000000  0.0000000 -1.0000000 )


      isym = 33     inv. 180 deg rotation - cart. axis [1,0,1]

 cryst.   s(33) = (     1          0          0      )
                  (     0          0          1      )
                  (     0          1          0      )

 cart.    s(33) = (  0.0000000  0.0000000 -1.0000000 )
                  (  0.0000000  1.0000000  0.0000000 )
                  ( -1.0000000  0.0000000  0.0000000 )


      isym = 34     inv. 180 deg rotation - cart. axis [-1,0,1]

 cryst.   s(34) = (    -1          0          0      )
                  (    -1          1          0      )
                  (    -1          0          1      )

 cart.    s(34) = (  0.0000000  0.0000000  1.0000000 )
                  (  0.0000000  1.0000000  0.0000000 )
                  (  1.0000000  0.0000000  0.0000000 )


      isym = 35     inv.  90 deg rotation - cart. axis [0,1,0]

 cryst.   s(35) = (     0         -1          1      )
                  (     1         -1          0      )
                  (     0         -1          0      )

 cart.    s(35) = (  0.0000000  0.0000000 -1.0000000 )
                  (  0.0000000 -1.0000000  0.0000000 )
                  (  1.0000000  0.0000000  0.0000000 )


      isym = 36     inv.  90 deg rotation - cart. axis [0,-1,0]

 cryst.   s(36) = (     0          1         -1      )
                  (     0          0         -1      )
                  (     1          0         -1      )

 cart.    s(36) = (  0.0000000  0.0000000  1.0000000 )
                  (  0.0000000 -1.0000000  0.0000000 )
                  ( -1.0000000  0.0000000  0.0000000 )


      isym = 37     inv. 180 deg rotation - cart. axis [0,1,1]

 cryst.   s(37) = (     1         -1          0      )
                  (     0         -1          0      )
                  (     0         -1          1      )

 cart.    s(37) = (  1.0000000  0.0000000  0.0000000 )
                  (  0.0000000  0.0000000 -1.0000000 )
                  (  0.0000000 -1.0000000  0.0000000 )


      isym = 38     inv. 180 deg rotation - cart. axis [0,1,-1]

 cryst.   s(38) = (     0          0          1      )
                  (     0          1          0      )
                  (     1          0          0      )

 cart.    s(38) = (  1.0000000  0.0000000  0.0000000 )
                  (  0.0000000  0.0000000  1.0000000 )
                  (  0.0000000  1.0000000  0.0000000 )


      isym = 39     inv.  90 deg rotation - cart. axis [-1,0,0]

 cryst.   s(39) = (     0          0         -1      )
                  (     1          0         -1      )
                  (     0          1         -1      )

 cart.    s(39) = ( -1.0000000  0.0000000  0.0000000 )
                  (  0.0000000  0.0000000 -1.0000000 )
                  (  0.0000000  1.0000000  0.0000000 )


      isym = 40     inv.  90 deg rotation - cart. axis [1,0,0]

 cryst.   s(40) = (    -1          1          0      )
                  (    -1          0          1      )
                  (    -1          0          0      )

 cart.    s(40) = ( -1.0000000  0.0000000  0.0000000 )
                  (  0.0000000  0.0000000  1.0000000 )
                  (  0.0000000 -1.0000000  0.0000000 )


      isym = 41     inv. 120 deg rotation - cart. axis [-1,-1,-1]

 cryst.   s(41) = (     1          0         -1      )    f =( -0.2500000 )
                  (     1         -1          0      )       ( -0.2500000 )
                  (     1          0          0      )       ( -0.2500000 )

 cart.    s(41) = (  0.0000000 -1.0000000  0.0000000 )    f =(  0.2500000 )
                  (  0.0000000  0.0000000 -1.0000000 )       ( -0.2500000 )
                  ( -1.0000000  0.0000000  0.0000000 )       ( -0.2500000 )


      isym = 42     inv. 120 deg rotation - cart. axis [-1,1,1]

 cryst.   s(42) = (     0         -1          0      )    f =( -0.2500000 )
                  (     0          0         -1      )       ( -0.2500000 )
                  (    -1          0          0      )       ( -0.2500000 )

 cart.    s(42) = (  0.0000000  1.0000000  0.0000000 )    f =(  0.2500000 )
                  (  0.0000000  0.0000000 -1.0000000 )       ( -0.2500000 )
                  (  1.0000000  0.0000000  0.0000000 )       ( -0.2500000 )


      isym = 43     inv. 120 deg rotation - cart. axis [1,1,-1]

 cryst.   s(43) = (    -1          0          1      )    f =( -0.2500000 )
                  (     0          0          1      )       ( -0.2500000 )
                  (     0         -1          1      )       ( -0.2500000 )

 cart.    s(43) = (  0.0000000 -1.0000000  0.0000000 )    f =(  0.2500000 )
                  (  0.0000000  0.0000000  1.0000000 )       ( -0.2500000 )
                  (  1.0000000  0.0000000  0.0000000 )       ( -0.2500000 )


      isym = 44     inv. 120 deg rotation - cart. axis [1,-1,1]

 cryst.   s(44) = (     0          1          0      )    f =( -0.2500000 )
                  (    -1          1          0      )       ( -0.2500000 )
                  (     0          1         -1      )       ( -0.2500000 )

 cart.    s(44) = (  0.0000000  1.0000000  0.0000000 )    f =(  0.2500000 )
                  (  0.0000000  0.0000000  1.0000000 )       ( -0.2500000 )
                  ( -1.0000000  0.0000000  0.0000000 )       ( -0.2500000 )


      isym = 45     inv. 120 deg rotation - cart. axis [1,1,1]

 cryst.   s(45) = (     0          0          1      )    f =( -0.2500000 )
                  (     0         -1          1      )       ( -0.2500000 )
                  (    -1          0          1      )       ( -0.2500000 )

 cart.    s(45) = (  0.0000000  0.0000000 -1.0000000 )    f =(  0.2500000 )
                  ( -1.0000000  0.0000000  0.0000000 )       ( -0.2500000 )
                  (  0.0000000 -1.0000000  0.0000000 )       ( -0.2500000 )


      isym = 46     inv. 120 deg rotation - cart. axis [-1,1,-1]

 cryst.   s(46) = (     1         -1          0      )    f =( -0.2500000 )
                  (     1          0          0      )       ( -0.2500000 )
                  (     1          0         -1      )       ( -0.2500000 )

 cart.    s(46) = (  0.0000000  0.0000000 -1.0000000 )    f =(  0.2500000 )
                  (  1.0000000  0.0000000  0.0000000 )       ( -0.2500000 )
                  (  0.0000000  1.0000000  0.0000000 )       ( -0.2500000 )


      isym = 47     inv. 120 deg rotation - cart. axis [1,-1,-1]

 cryst.   s(47) = (     0          0         -1      )    f =( -0.2500000 )
                  (    -1          0          0      )       ( -0.2500000 )
                  (     0         -1          0      )       ( -0.2500000 )

 cart.    s(47) = (  0.0000000  0.0000000  1.0000000 )    f =(  0.2500000 )
                  (  1.0000000  0.0000000  0.0000000 )       ( -0.2500000 )
                  (  0.0000000 -1.0000000  0.0000000 )       ( -0.2500000 )


      isym = 48     inv. 120 deg rotation - cart. axis [-1,-1,1]

 cryst.   s(48) = (    -1          1          0      )    f =( -0.2500000 )
                  (     0          1         -1      )       ( -0.2500000 )
                  (     0          1          0      )       ( -0.2500000 )

 cart.    s(48) = (  0.0000000  0.0000000  1.0000000 )    f =(  0.2500000 )
                  ( -1.0000000  0.0000000  0.0000000 )       ( -0.2500000 )
                  (  0.0000000  1.0000000  0.0000000 )       ( -0.2500000 )


     point group O_h (m-3m)
     there are 10 classes
     the character table:

       E     8C3   3C2   6C4   6C2'  i     8S6   3s_h  6S4   6s_d
A_1g   1.00  1.00  1.00  1.00  1.00  1.00  1.00  1.00  1.00  1.00
A_2g   1.00  1.00  1.00 -1.00 -1.00  1.00  1.00  1.00 -1.00 -1.00
E_g    2.00 -1.00  2.00  0.00  0.00  2.00 -1.00  2.00  0.00  0.00
T_1g   3.00  0.00 -1.00  1.00 -1.00  3.00  0.00 -1.00  1.00 -1.00
T_2g   3.00  0.00 -1.00 -1.00  1.00  3.00  0.00 -1.00 -1.00  1.00
A_1u   1.00  1.00  1.00  1.00  1.00 -1.00 -1.00 -1.00 -1.00 -1.00
A_2u   1.00  1.00  1.00 -1.00 -1.00 -1.00 -1.00 -1.00  1.00  1.00
E_u    2.00 -1.00  2.00  0.00  0.00 -2.00  1.00 -2.00  0.00  0.00
T_1u   3.00  0.00 -1.00  1.00 -1.00 -3.00  0.00  1.00 -1.00  1.00
T_2u   3.00  0.00 -1.00 -1.00  1.00 -3.00  0.00  1.00  1.00 -1.00

     the symmetry operations in each class and the name of the first element:

     E        1
          identity
     8C3     17   19   20   18   24   21   22   23
          120 deg rotation - cart. axis [-1,-1,-1]
     3C2      2    4    3
          180 deg rotation - cart. axis [0,0,1]
     6C4      7    8   15   16   12   11
           90 deg rotation - cart. axis [0,0,-1]
     6C2'     5    6   14   13   10    9
          180 deg rotation - cart. axis [1,1,0]
     i       25
          inversion
     8S6     41   43   44   42   48   45   46   47
          inv. 120 deg rotation - cart. axis [-1,-1,-1]
     3s_h    26   28   27
          inv. 180 deg rotation - cart. axis [0,0,1]
     6S4     31   32   39   40   36   35
          inv.  90 deg rotation - cart. axis [0,0,-1]
     6s_d    29   30   38   37   34   33
          inv. 180 deg rotation - cart. axis [1,1,0]

   Cartesian axes

     site n.     atom                  positions (alat units)
         1           Si  tau(   1) = (   0.0000000   0.0000000   0.0000000  )
         2           Si  tau(   2) = (  -0.2500000   0.2500000   0.2500000  )

   Crystallographic axes

     site n.     atom                  positions (cryst. coord.)
         1           Si  tau(   1) = (  0.0000000  0.0000000  0.0000000  )
         2           Si  tau(   2) = (  0.2500000  0.2500000  0.2500000  )

     number of k points=     8
                       cart. coord. in units 2pi/alat
        k(    1) = (   0.0000000   0.0000000   0.0000000), wk =   0.0312500
        k(    2) = (  -0.2500000   0.2500000  -0.2500000), wk =   0.2500000
        k(    3) = (   0.5000000  -0.5000000   0.5000000), wk =   0.1250000
        k(    4) = (   0.0000000   0.5000000   0.0000000), wk =   0.1875000
        k(    5) = (   0.7500000  -0.2500000   0.7500000), wk =   0.7500000
        k(    6) = (   0.5000000   0.0000000   0.5000000), wk =   0.3750000
        k(    7) = (   0.0000000  -1.0000000   0.0000000), wk =   0.0937500
        k(    8) = (  -0.5000000  -1.0000000   0.0000000), wk =   0.1875000

                       cryst. coord.
        k(    1) = (   0.0000000   0.0000000   0.0000000), wk =   0.0312500
        k(    2) = (   0.0000000   0.0000000   0.2500000), wk =   0.2500000
        k(    3) = (   0.0000000   0.0000000  -0.5000000), wk =   0.1250000
        k(    4) = (   0.0000000   0.2500000   0.2500000), wk =   0.1875000
        k(    5) = (   0.0000000   0.2500000  -0.5000000), wk =   0.7500000
        k(    6) = (   0.0000000   0.2500000  -0.2500000), wk =   0.3750000
        k(    7) = (   0.0000000  -0.5000000  -0.5000000), wk =   0.0937500
        k(    8) = (   0.2500000  -0.5000000  -0.2500000), wk =   0.1875000

     Dense  grid:    16625 G-vectors     FFT dimensions: (  36,  36,  36)

     Smooth grid:     5961 G-vectors     FFT dimensions: (  25,  25,  25)

     Estimated max dynamical RAM per process >      10.49MB

     Initial potential from superposition of free atoms

     starting charge    7.99889, renormalised to    8.00000
     Starting wfc are    8 randomized atomic wfcs

     total cpu time spent up to now is        0.6 secs

     Self-consistent Calculation

     iteration #  1     ecut=    30.00 Ry     beta=0.70
     Davidson diagonalization with overlap
     ethr =  1.00E-02,  avg # of iterations =  2.0

     Threshold (ethr) on eigenvalues was too large:
     Diagonalizing with lowered threshold

     Davidson diagonalization with overlap
     ethr =  8.29E-04,  avg # of iterations =  1.2

     total cpu time spent up to now is        0.8 secs

     total energy              =     -15.72373691 Ry
     Harris-Foulkes estimate   =     -15.73977355 Ry
     estimated scf accuracy    <       0.06542607 Ry

     iteration #  2     ecut=    30.00 Ry     beta=0.70
     Davidson diagonalization with overlap
     ethr =  8.18E-04,  avg # of iterations =  1.0

     total cpu time spent up to now is        0.9 secs

     total energy              =     -15.72616283 Ry
     Harris-Foulkes estimate   =     -15.72614665 Ry
     estimated scf accuracy    <       0.00307991 Ry

     iteration #  3     ecut=    30.00 Ry     beta=0.70
     Davidson diagonalization with overlap
     ethr =  3.85E-05,  avg # of iterations =  1.8

     total cpu time spent up to now is        1.0 secs

     total energy              =     -15.72651784 Ry
     Harris-Foulkes estimate   =     -15.72652904 Ry
     estimated scf accuracy    <       0.00006015 Ry

     iteration #  4     ecut=    30.00 Ry     beta=0.70
     Davidson diagonalization with overlap
     ethr =  7.52E-07,  avg # of iterations =  3.0

     total cpu time spent up to now is        1.2 secs

     total energy              =     -15.72655878 Ry
     Harris-Foulkes estimate   =     -15.72655842 Ry
     estimated scf accuracy    <       0.00000068 Ry

     iteration #  5     ecut=    30.00 Ry     beta=0.70
     Davidson diagonalization with overlap
     ethr =  8.54E-09,  avg # of iterations =  3.0

     total cpu time spent up to now is        1.3 secs

     End of self-consistent calculation

          k = 0.0000 0.0000 0.0000 (   725 PWs)   bands (ev):

    -5.5726   6.4621   6.4621   6.4621

     occupation numbers
     1.0000   1.0000   1.0000   1.0000

          k =-0.2500 0.2500-0.2500 (   745 PWs)   bands (ev):

    -4.7595   2.5262   5.6903   5.6903

     occupation numbers
     1.0000   1.0000   1.0000   1.0000

          k = 0.5000-0.5000 0.5000 (   754 PWs)   bands (ev):

    -3.1875  -0.5699   5.2475   5.2475

     occupation numbers
     1.0000   1.0000   1.0000   1.0000

          k = 0.0000 0.5000 0.0000 (   729 PWs)   bands (ev):

    -4.4735   2.9927   4.5366   4.5366

     occupation numbers
     1.0000   1.0000   1.0000   1.0000

          k = 0.7500-0.2500 0.7500 (   735 PWs)   bands (ev):

    -2.8039   0.0717   2.8741   4.2187

     occupation numbers
     1.0000   1.0000   1.0000   1.0000

          k = 0.5000 0.0000 0.5000 (   742 PWs)   bands (ev):

    -3.4920   0.9907   2.6410   5.1133

     occupation numbers
     1.0000   1.0000   1.0000   1.0000

          k = 0.0000-1.0000 0.0000 (   740 PWs)   bands (ev):

    -1.3617  -1.3617   3.5602   3.5602

     occupation numbers
     1.0000   1.0000   1.0000   1.0000

          k =-0.5000-1.0000 0.0000 (   724 PWs)   bands (ev):

    -1.1856  -1.1856   2.5293   2.5293

     occupation numbers
     1.0000   1.0000   1.0000   1.0000

     highest occupied level (ev):     6.4621

!    total energy              =     -15.72655910 Ry
     Harris-Foulkes estimate   =     -15.72655908 Ry
     estimated scf accuracy    <          7.8E-09 Ry

     The total energy is the sum of the following terms:

     one-electron contribution =       4.91363399 Ry
     hartree contribution      =       1.10269130 Ry
     xc contribution           =      -4.84312582 Ry
     ewald contribution        =     -16.89975857 Ry

     convergence has been achieved in   5 iterations

     Forces acting on atoms (cartesian axes, Ry/au):

     atom    1 type  1   force =    -0.00000000    0.00000000   -0.00000000
     atom    2 type  1   force =    -0.00000000   -0.00000000    0.00000000
     The non-local contrib.  to forces
     atom    1 type  1   force =     0.00000000    0.00000000   -0.00000000
     atom    2 type  1   force =    -0.00000000   -0.00000000    0.00000000
     The ionic contribution  to forces
     atom    1 type  1   force =     0.00000000   -0.00000000   -0.00000000
     atom    2 type  1   force =     0.00000000    0.00000000   -0.00000000
     The local contribution  to forces
     atom    1 type  1   force =     0.00000000   -0.00000000    0.00000000
     atom    2 type  1   force =    -0.00000000    0.00000000   -0.00000000
     The core correction contribution to forces
     atom    1 type  1   force =     0.00000000    0.00000000    0.00000000
     atom    2 type  1   force =     0.00000000    0.00000000    0.00000000
     The Hubbard contrib.    to forces
     atom    1 type  1   force =     0.00000000    0.00000000    0.00000000
     atom    2 type  1   force =     0.00000000    0.00000000    0.00000000
     The SCF correction term to forces
     atom    1 type  1   force =     0.00000000    0.00000000   -0.00000000
     atom    2 type  1   force =    -0.00000000   -0.00000000    0.00000000

     Total force =     0.000000     Total SCF correction =     0.000000


     Computing stress (Cartesian axis) and pressure

          total   stress  (Ry/bohr**3)                   (kbar)     P=   47.23
   0.00032109  -0.00000000  -0.00000000         47.23     -0.00     -0.00
  -0.00000000   0.00032109   0.00000000         -0.00     47.23      0.00
  -0.00000000   0.00000000   0.00032109         -0.00      0.00     47.23

     kinetic stress (kbar)   2255.21      0.00     -0.00
                                0.00   2255.21      0.00
                               -0.00      0.00   2255.21

     local   stress (kbar)   -961.87      0.00     -0.00
                                0.00   -961.87     -0.00
                               -0.00     -0.00   -961.87

     nonloc. stress (kbar)   2496.65     -0.00     -0.00
                               -0.00   2496.65     -0.00
                               -0.00      0.00   2496.65

     hartree stress (kbar)    203.81     -0.00      0.00
                               -0.00    203.81     -0.00
                                0.00     -0.00    203.81

     exc-cor stress (kbar)   -823.03     -0.00      0.00
                               -0.00   -823.03      0.00
                                0.00      0.00   -823.03

     corecor stress (kbar)      0.00      0.00      0.00
                                0.00      0.00      0.00
                                0.00      0.00      0.00

     ewald   stress (kbar)  -3123.53     -0.00     -0.00
                               -0.00  -3123.53      0.00
                               -0.00      0.00  -3123.53

     hubbard stress (kbar)      0.00      0.00      0.00
                                0.00      0.00      0.00
                                0.00      0.00      0.00

     london  stress (kbar)      0.00      0.00      0.00
                                0.00      0.00      0.00
                                0.00      0.00      0.00

     XDM     stress (kbar)      0.00      0.00      0.00
                                0.00      0.00      0.00
                                0.00      0.00      0.00

     dft-nl  stress (kbar)      0.00      0.00      0.00
                                0.00      0.00      0.00
                                0.00      0.00      0.00

     TS-vdW  stress (kbar)      0.00      0.00      0.00
                                0.00      0.00      0.00
                                0.00      0.00      0.00



     BFGS Geometry Optimization

     number of scf cycles    =   1
     number of bfgs steps    =   0

     enthalpy new            =     -15.7265590950 Ry

     new trust radius        =       0.0261493885 bohr
     new conv_thr            =       0.0000000100 Ry

     new unit-cell volume =    271.74228 a.u.^3 (    40.26805 Ang^3 )
     density =      2.31637 g/cm^3

CELL_PARAMETERS (alat= 10.20000000)
  -0.504013574   0.000000000   0.504013574
  -0.000000000   0.504013574   0.504013574
  -0.504013574   0.504013574   0.000000000

ATOMIC_POSITIONS (crystal)
Si      -0.000000000  -0.000000000   0.000000000
Si       0.250000000   0.250000000   0.250000000



     Writing output data file silicon.save
     NEW-OLD atomic charge density approx. for the potential
     extrapolated charge    8.18957, renormalised to    8.00000

     total cpu time spent up to now is        2.4 secs

     Self-consistent Calculation

     iteration #  1     ecut=    30.00 Ry     beta=0.70
     Davidson diagonalization with overlap
     ethr =  1.00E-06,  avg # of iterations =  3.9

     total cpu time spent up to now is        2.6 secs

     total energy              =     -15.72771828 Ry
     Harris-Foulkes estimate   =     -15.82355375 Ry
     estimated scf accuracy    <       0.00016498 Ry

     iteration #  2     ecut=    30.00 Ry     beta=0.70
     Davidson diagonalization with overlap
     ethr =  2.06E-06,  avg # of iterations =  3.4

     total cpu time spent up to now is        2.8 secs

     total energy              =     -15.72809631 Ry
     Harris-Foulkes estimate   =     -15.72813966 Ry
     estimated scf accuracy    <       0.00016194 Ry

     iteration #  3     ecut=    30.00 Ry     beta=0.70
     Davidson diagonalization with overlap
     ethr =  2.02E-06,  avg # of iterations =  1.0

     total cpu time spent up to now is        2.9 secs

     total energy              =     -15.72807687 Ry
     Harris-Foulkes estimate   =     -15.72809949 Ry
     estimated scf accuracy    <       0.00005023 Ry

     iteration #  4     ecut=    30.00 Ry     beta=0.70
     Davidson diagonalization with overlap
     ethr =  6.28E-07,  avg # of iterations =  2.0

     total cpu time spent up to now is        3.0 secs

     total energy              =     -15.72808270 Ry
     Harris-Foulkes estimate   =     -15.72808412 Ry
     estimated scf accuracy    <       0.00000303 Ry

     iteration #  5     ecut=    30.00 Ry     beta=0.70
     Davidson diagonalization with overlap
     ethr =  3.78E-08,  avg # of iterations =  2.1

     total cpu time spent up to now is        3.2 secs

     total energy              =     -15.72808316 Ry
     Harris-Foulkes estimate   =     -15.72808325 Ry
     estimated scf accuracy    <       0.00000024 Ry

     iteration #  6     ecut=    30.00 Ry     beta=0.70
     Davidson diagonalization with overlap
     ethr =  3.03E-09,  avg # of iterations =  1.1

     total cpu time spent up to now is        3.3 secs

     total energy              =     -15.72808316 Ry
     Harris-Foulkes estimate   =     -15.72808317 Ry
     estimated scf accuracy    <       0.00000002 Ry

     iteration #  7     ecut=    30.00 Ry     beta=0.70
     Davidson diagonalization with overlap
     ethr =  2.47E-10,  avg # of iterations =  2.4

     total cpu time spent up to now is        3.5 secs

     End of self-consistent calculation

          k = 0.0000 0.0000 0.0000 (   725 PWs)   bands (ev):

    -5.6600   6.2105   6.2105   6.2105

     occupation numbers
     1.0000   1.0000   1.0000   1.0000

          k =-0.2480 0.2480-0.2480 (   745 PWs)   bands (ev):

    -4.8639   2.3196   5.4539   5.4539

     occupation numbers
     1.0000   1.0000   1.0000   1.0000

          k = 0.4960-0.4960 0.4960 (   754 PWs)   bands (ev):

    -3.3361  -0.7080   5.0166   5.0166

     occupation numbers
     1.0000   1.0000   1.0000   1.0000

          k = 0.0000 0.4960 0.0000 (   729 PWs)   bands (ev):

    -4.5832   2.7369   4.3296   4.3296

     occupation numbers
     1.0000   1.0000   1.0000   1.0000

          k = 0.7440-0.2480 0.7440 (   735 PWs)   bands (ev):

    -2.9536  -0.1148   2.7003   4.0158

     occupation numbers
     1.0000   1.0000   1.0000   1.0000

          k = 0.4960 0.0000 0.4960 (   742 PWs)   bands (ev):

    -3.6251   0.7830   2.4814   4.8885

     occupation numbers
     1.0000   1.0000   1.0000   1.0000

          k = 0.0000-0.9920 0.0000 (   740 PWs)   bands (ev):

    -1.5362  -1.5362   3.3715   3.3715

     occupation numbers
     1.0000   1.0000   1.0000   1.0000

          k =-0.4960-0.9920 0.0000 (   724 PWs)   bands (ev):

    -1.3713  -1.3713   2.3794   2.3794

     occupation numbers
     1.0000   1.0000   1.0000   1.0000

     highest occupied level (ev):     6.2105

!    total energy              =     -15.72808317 Ry
     Harris-Foulkes estimate   =     -15.72808317 Ry
     estimated scf accuracy    <          8.3E-10 Ry

     The total energy is the sum of the following terms:

     one-electron contribution =       4.73159771 Ry
     hartree contribution      =       1.12300187 Ry
     xc contribution           =      -4.81750077 Ry
     ewald contribution        =     -16.76518197 Ry

     convergence has been achieved in   7 iterations

     Forces acting on atoms (cartesian axes, Ry/au):

     atom    1 type  1   force =     0.00000000    0.00000000    0.00000000
     atom    2 type  1   force =     0.00000000    0.00000000    0.00000000
     The non-local contrib.  to forces
     atom    1 type  1   force =     0.00000000    0.00000000    0.00000000
     atom    2 type  1   force =    -0.00000000   -0.00000000   -0.00000000
     The ionic contribution  to forces
     atom    1 type  1   force =     0.00000000    0.00000000   -0.00000000
     atom    2 type  1   force =    -0.00000000   -0.00000000    0.00000000
     The local contribution  to forces
     atom    1 type  1   force =     0.00000000   -0.00000000   -0.00000000
     atom    2 type  1   force =    -0.00000000    0.00000000   -0.00000000
     The core correction contribution to forces
     atom    1 type  1   force =     0.00000000    0.00000000    0.00000000
     atom    2 type  1   force =     0.00000000    0.00000000    0.00000000
     The Hubbard contrib.    to forces
     atom    1 type  1   force =     0.00000000    0.00000000    0.00000000
     atom    2 type  1   force =     0.00000000    0.00000000    0.00000000
     The SCF correction term to forces
     atom    1 type  1   force =    -0.00000000    0.00000000   -0.00000000
     atom    2 type  1   force =     0.00000000   -0.00000000    0.00000000

     Total force =     0.000000     Total SCF correction =     0.000000


     Computing stress (Cartesian axis) and pressure

          total   stress  (Ry/bohr**3)                   (kbar)     P=   22.87
   0.00015548   0.00000000   0.00000000         22.87      0.00      0.00
   0.00000000   0.00015548   0.00000000          0.00     22.87      0.00
   0.00000000   0.00000000   0.00015548          0.00      0.00     22.87

     kinetic stress (kbar)   2179.32     -0.00     -0.00
                               -0.00   2179.32      0.00
                               -0.00      0.00   2179.32

     local   stress (kbar)   -953.38      0.00      0.00
                                0.00   -953.38     -0.00
                                0.00     -0.00   -953.38

     nonloc. stress (kbar)   2418.75     -0.00     -0.00
                               -0.00   2418.75      0.00
                               -0.00      0.00   2418.75

     hartree stress (kbar)    202.64     -0.00      0.00
                               -0.00    202.64      0.00
                                0.00      0.00    202.64

     exc-cor stress (kbar)   -799.25      0.00     -0.00
                                0.00   -799.25      0.00
                               -0.00      0.00   -799.25

     corecor stress (kbar)      0.00      0.00      0.00
                                0.00      0.00      0.00
                                0.00      0.00      0.00

     ewald   stress (kbar)  -3025.22     -0.00     -0.00
                               -0.00  -3025.22      0.00
                               -0.00      0.00  -3025.22

     hubbard stress (kbar)      0.00      0.00      0.00
                                0.00      0.00      0.00
                                0.00      0.00      0.00

     london  stress (kbar)      0.00      0.00      0.00
                                0.00      0.00      0.00
                                0.00      0.00      0.00

     XDM     stress (kbar)      0.00      0.00      0.00
                                0.00      0.00      0.00
                                0.00      0.00      0.00

     dft-nl  stress (kbar)      0.00      0.00      0.00
                                0.00      0.00      0.00
                                0.00      0.00      0.00

     TS-vdW  stress (kbar)      0.00      0.00      0.00
                                0.00      0.00      0.00
                                0.00      0.00      0.00



     number of scf cycles    =   2
     number of bfgs steps    =   1

     enthalpy old            =     -15.7265590950 Ry
     enthalpy new            =     -15.7280831671 Ry

     CASE: enthalpy_new < enthalpy_old

     new trust radius        =       0.0254316967 bohr
     new conv_thr            =            1.0E-10 Ry

     new unit-cell volume =    278.07938 a.u.^3 (    41.20711 Ang^3 )
     density =      2.26358 g/cm^3

CELL_PARAMETERS (alat= 10.20000000)
  -0.507901419   0.000000000   0.507901419
  -0.000000000   0.507901419   0.507901419
  -0.507901419   0.507901419   0.000000000

ATOMIC_POSITIONS (crystal)
Si      -0.000000000  -0.000000000   0.000000000
Si       0.250000000   0.250000000   0.250000000



     Writing output data file silicon.save
     NEW-OLD atomic charge density approx. for the potential
     extrapolated charge    8.18229, renormalised to    8.00000

     total cpu time spent up to now is        4.7 secs

     Self-consistent Calculation

     iteration #  1     ecut=    30.00 Ry     beta=0.70
     Davidson diagonalization with overlap
     ethr =  1.00E-06,  avg # of iterations =  3.9

     total cpu time spent up to now is        4.9 secs

     total energy              =     -15.72825730 Ry
     Harris-Foulkes estimate   =     -15.81875464 Ry
     estimated scf accuracy    <       0.00015850 Ry

     iteration #  2     ecut=    30.00 Ry     beta=0.70
     Davidson diagonalization with overlap
     ethr =  1.98E-06,  avg # of iterations =  3.4

     total cpu time spent up to now is        5.2 secs

     total energy              =     -15.72861374 Ry
     Harris-Foulkes estimate   =     -15.72865430 Ry
     estimated scf accuracy    <       0.00015122 Ry

     iteration #  3     ecut=    30.00 Ry     beta=0.70
     Davidson diagonalization with overlap
     ethr =  1.89E-06,  avg # of iterations =  1.0

     total cpu time spent up to now is        5.4 secs

     total energy              =     -15.72859590 Ry
     Harris-Foulkes estimate   =     -15.72861673 Ry
     estimated scf accuracy    <       0.00004641 Ry

     iteration #  4     ecut=    30.00 Ry     beta=0.70
     Davidson diagonalization with overlap
     ethr =  5.80E-07,  avg # of iterations =  2.0

     total cpu time spent up to now is        5.6 secs

     total energy              =     -15.72860124 Ry
     Harris-Foulkes estimate   =     -15.72860250 Ry
     estimated scf accuracy    <       0.00000269 Ry

     iteration #  5     ecut=    30.00 Ry     beta=0.70
     Davidson diagonalization with overlap
     ethr =  3.36E-08,  avg # of iterations =  2.1

     total cpu time spent up to now is        5.8 secs

     total energy              =     -15.72860167 Ry
     Harris-Foulkes estimate   =     -15.72860173 Ry
     estimated scf accuracy    <       0.00000017 Ry

     iteration #  6     ecut=    30.00 Ry     beta=0.70
     Davidson diagonalization with overlap
     ethr =  2.15E-09,  avg # of iterations =  1.2

     total cpu time spent up to now is        5.9 secs

     total energy              =     -15.72860167 Ry
     Harris-Foulkes estimate   =     -15.72860168 Ry
     estimated scf accuracy    <       0.00000002 Ry

     iteration #  7     ecut=    30.00 Ry     beta=0.70
     Davidson diagonalization with overlap
     ethr =  2.54E-10,  avg # of iterations =  2.2

     total cpu time spent up to now is        6.1 secs

     total energy              =     -15.72860167 Ry
     Harris-Foulkes estimate   =     -15.72860167 Ry
     estimated scf accuracy    <          5.7E-10 Ry

     iteration #  8     ecut=    30.00 Ry     beta=0.70
     Davidson diagonalization with overlap
     ethr =  7.13E-12,  avg # of iterations =  2.5

     total cpu time spent up to now is        6.3 secs

     End of self-consistent calculation

          k = 0.0000 0.0000 0.0000 (   725 PWs)   bands (ev):

    -5.7423   5.9734   5.9734   5.9734

     occupation numbers
     1.0000   1.0000   1.0000   1.0000

          k =-0.2461 0.2461-0.2461 (   745 PWs)   bands (ev):

    -4.9624   2.1234   5.2314   5.2314

     occupation numbers
     1.0000   1.0000   1.0000   1.0000

          k = 0.4922-0.4922 0.4922 (   754 PWs)   bands (ev):

    -3.4759  -0.8394   4.7995   4.7995

     occupation numbers
     1.0000   1.0000   1.0000   1.0000

          k = 0.0000 0.4922 0.0000 (   729 PWs)   bands (ev):

    -4.6867   2.4947   4.1348   4.1348

     occupation numbers
     1.0000   1.0000   1.0000   1.0000

          k = 0.7383-0.2461 0.7383 (   735 PWs)   bands (ev):

    -3.0949  -0.2917   2.5373   3.8249

     occupation numbers
     1.0000   1.0000   1.0000   1.0000

          k = 0.4922 0.0000 0.4922 (   742 PWs)   bands (ev):

    -3.7507   0.5863   2.3312   4.6770

     occupation numbers
     1.0000   1.0000   1.0000   1.0000

          k = 0.0000-0.9844 0.0000 (   740 PWs)   bands (ev):

    -1.7012  -1.7012   3.1941   3.1941

     occupation numbers
     1.0000   1.0000   1.0000   1.0000

          k =-0.4922-0.9844 0.0000 (   724 PWs)   bands (ev):

    -1.5464  -1.5464   2.2381   2.2381

     occupation numbers
     1.0000   1.0000   1.0000   1.0000

     highest occupied level (ev):     5.9734

!    total energy              =     -15.72860167 Ry
     Harris-Foulkes estimate   =     -15.72860167 Ry
     estimated scf accuracy    <          3.2E-12 Ry

     The total energy is the sum of the following terms:

     one-electron contribution =       4.55869655 Ry
     hartree contribution      =       1.14275109 Ry
     xc contribution           =      -4.79320017 Ry
     ewald contribution        =     -16.63684913 Ry

     convergence has been achieved in   8 iterations

     Forces acting on atoms (cartesian axes, Ry/au):

     atom    1 type  1   force =     0.00000000    0.00000000    0.00000000
     atom    2 type  1   force =     0.00000000    0.00000000    0.00000000
     The non-local contrib.  to forces
     atom    1 type  1   force =    -0.00000000    0.00000000   -0.00000000
     atom    2 type  1   force =     0.00000000   -0.00000000    0.00000000
     The ionic contribution  to forces
     atom    1 type  1   force =     0.00000000   -0.00000000   -0.00000000
     atom    2 type  1   force =    -0.00000000    0.00000000    0.00000000
     The local contribution  to forces
     atom    1 type  1   force =    -0.00000000    0.00000000   -0.00000000
     atom    2 type  1   force =    -0.00000000    0.00000000    0.00000000
     The core correction contribution to forces
     atom    1 type  1   force =     0.00000000    0.00000000    0.00000000
     atom    2 type  1   force =     0.00000000    0.00000000    0.00000000
     The Hubbard contrib.    to forces
     atom    1 type  1   force =     0.00000000    0.00000000    0.00000000
     atom    2 type  1   force =     0.00000000    0.00000000    0.00000000
     The SCF correction term to forces
     atom    1 type  1   force =     0.00000000   -0.00000000    0.00000000
     atom    2 type  1   force =    -0.00000000    0.00000000   -0.00000000

     Total force =     0.000000     Total SCF correction =     0.000000


     Computing stress (Cartesian axis) and pressure

          total   stress  (Ry/bohr**3)                   (kbar)     P=    1.61
   0.00001094   0.00000000   0.00000000          1.61      0.00      0.00
   0.00000000   0.00001094  -0.00000000          0.00      1.61     -0.00
   0.00000000  -0.00000000   0.00001094          0.00     -0.00      1.61

     kinetic stress (kbar)   2109.13     -0.00     -0.00
                               -0.00   2109.13     -0.00
                                0.00      0.00   2109.13

     local   stress (kbar)   -945.33      0.00      0.00
                                0.00   -945.33     -0.00
                                0.00     -0.00   -945.33

     nonloc. stress (kbar)   2347.03      0.00      0.00
                                0.00   2347.03     -0.00
                                0.00     -0.00   2347.03

     hartree stress (kbar)    201.51     -0.00     -0.00
                               -0.00    201.51      0.00
                               -0.00      0.00    201.51

     exc-cor stress (kbar)   -777.07      0.00      0.00
                                0.00   -777.07      0.00
                                0.00      0.00   -777.07

     corecor stress (kbar)      0.00      0.00      0.00
                                0.00      0.00      0.00
                                0.00      0.00      0.00

     ewald   stress (kbar)  -2933.65     -0.00     -0.00
                               -0.00  -2933.65      0.00
                               -0.00      0.00  -2933.65

     hubbard stress (kbar)      0.00      0.00      0.00
                                0.00      0.00      0.00
                                0.00      0.00      0.00

     london  stress (kbar)      0.00      0.00      0.00
                                0.00      0.00      0.00
                                0.00      0.00      0.00

     XDM     stress (kbar)      0.00      0.00      0.00
                                0.00      0.00      0.00
                                0.00      0.00      0.00

     dft-nl  stress (kbar)      0.00      0.00      0.00
                                0.00      0.00      0.00
                                0.00      0.00      0.00

     TS-vdW  stress (kbar)      0.00      0.00      0.00
                                0.00      0.00      0.00
                                0.00      0.00      0.00



     number of scf cycles    =   3
     number of bfgs steps    =   2

     enthalpy old            =     -15.7280831671 Ry
     enthalpy new            =     -15.7286016712 Ry

     CASE: enthalpy_new < enthalpy_old

     new trust radius        =       0.0019641137 bohr
     new conv_thr            =            1.0E-10 Ry

     new unit-cell volume =    278.57097 a.u.^3 (    41.27996 Ang^3 )
     density =      2.25959 g/cm^3

CELL_PARAMETERS (alat= 10.20000000)
  -0.508200530   0.000000000   0.508200530
  -0.000000000   0.508200530   0.508200530
  -0.508200530   0.508200530   0.000000000

ATOMIC_POSITIONS (crystal)
Si      -0.000000000  -0.000000000   0.000000000
Si       0.250000000   0.250000000   0.250000000



     Writing output data file silicon.save
     NEW-OLD atomic charge density approx. for the potential
     extrapolated charge    8.01412, renormalised to    8.00000

     total cpu time spent up to now is        7.4 secs

     Self-consistent Calculation

     iteration #  1     ecut=    30.00 Ry     beta=0.70
     Davidson diagonalization with overlap
     ethr =  1.00E-06,  avg # of iterations =  1.0

     Threshold (ethr) on eigenvalues was too large:
     Diagonalizing with lowered threshold

     Davidson diagonalization with overlap
     ethr =  1.29E-08,  avg # of iterations =  2.9

     total cpu time spent up to now is        7.7 secs

     total energy              =     -15.72860239 Ry
     Harris-Foulkes estimate   =     -15.73556305 Ry
     estimated scf accuracy    <       0.00000101 Ry

     iteration #  2     ecut=    30.00 Ry     beta=0.70
     Davidson diagonalization with overlap
     ethr =  1.26E-08,  avg # of iterations =  3.2

     total cpu time spent up to now is        7.8 secs

     total energy              =     -15.72860452 Ry
     Harris-Foulkes estimate   =     -15.72860476 Ry
     estimated scf accuracy    <       0.00000088 Ry

     iteration #  3     ecut=    30.00 Ry     beta=0.70
     Davidson diagonalization with overlap
     ethr =  1.11E-08,  avg # of iterations =  1.0

     total cpu time spent up to now is        7.9 secs

     total energy              =     -15.72860442 Ry
     Harris-Foulkes estimate   =     -15.72860454 Ry
     estimated scf accuracy    <       0.00000026 Ry

     iteration #  4     ecut=    30.00 Ry     beta=0.70
     Davidson diagonalization with overlap
     ethr =  3.28E-09,  avg # of iterations =  2.0

     total cpu time spent up to now is        8.1 secs

     total energy              =     -15.72860445 Ry
     Harris-Foulkes estimate   =     -15.72860446 Ry
     estimated scf accuracy    <       0.00000002 Ry

     iteration #  5     ecut=    30.00 Ry     beta=0.70
     Davidson diagonalization with overlap
     ethr =  2.08E-10,  avg # of iterations =  2.0

     total cpu time spent up to now is        8.2 secs

     End of self-consistent calculation

          k = 0.0000 0.0000 0.0000 (   725 PWs)   bands (ev):

    -5.7485   5.9554   5.9554   5.9554

     occupation numbers
     1.0000   1.0000   1.0000   1.0000

          k =-0.2460 0.2460-0.2460 (   745 PWs)   bands (ev):

    -4.9699   2.1085   5.2145   5.2145

     occupation numbers
     1.0000   1.0000   1.0000   1.0000

          k = 0.4919-0.4919 0.4919 (   754 PWs)   bands (ev):

    -3.4865  -0.8494   4.7831   4.7831

     occupation numbers
     1.0000   1.0000   1.0000   1.0000

          k = 0.0000 0.4919 0.0000 (   729 PWs)   bands (ev):

    -4.6946   2.4763   4.1200   4.1200

     occupation numbers
     1.0000   1.0000   1.0000   1.0000

          k = 0.7379-0.2460 0.7379 (   735 PWs)   bands (ev):

    -3.1056  -0.3052   2.5250   3.8104

     occupation numbers
     1.0000   1.0000   1.0000   1.0000

          k = 0.4919 0.0000 0.4919 (   742 PWs)   bands (ev):

    -3.7603   0.5713   2.3199   4.6609

     occupation numbers
     1.0000   1.0000   1.0000   1.0000

          k = 0.0000-0.9839 0.0000 (   740 PWs)   bands (ev):

    -1.7137  -1.7137   3.1806   3.1806

     occupation numbers
     1.0000   1.0000   1.0000   1.0000

          k =-0.4919-0.9839 0.0000 (   724 PWs)   bands (ev):

    -1.5597  -1.5597   2.2273   2.2273

     occupation numbers
     1.0000   1.0000   1.0000   1.0000

     highest occupied level (ev):     5.9554

!    total energy              =     -15.72860446 Ry
     Harris-Foulkes estimate   =     -15.72860446 Ry
     estimated scf accuracy    <          1.6E-11 Ry

     The total energy is the sum of the following terms:

     one-electron contribution =       4.54553318 Ry
     hartree contribution      =       1.14426938 Ry
     xc contribution           =      -4.79134980 Ry
     ewald contribution        =     -16.62705722 Ry

     convergence has been achieved in   5 iterations

     Forces acting on atoms (cartesian axes, Ry/au):

     atom    1 type  1   force =     0.00000000    0.00000000    0.00000000
     atom    2 type  1   force =     0.00000000    0.00000000    0.00000000
     The non-local contrib.  to forces
     atom    1 type  1   force =     0.00000000    0.00000000    0.00000000
     atom    2 type  1   force =    -0.00000000   -0.00000000    0.00000000
     The ionic contribution  to forces
     atom    1 type  1   force =    -0.00000000    0.00000000    0.00000000
     atom    2 type  1   force =     0.00000000   -0.00000000   -0.00000000
     The local contribution  to forces
     atom    1 type  1   force =    -0.00000000    0.00000000    0.00000000
     atom    2 type  1   force =    -0.00000000    0.00000000    0.00000000
     The core correction contribution to forces
     atom    1 type  1   force =     0.00000000    0.00000000    0.00000000
     atom    2 type  1   force =     0.00000000    0.00000000    0.00000000
     The Hubbard contrib.    to forces
     atom    1 type  1   force =     0.00000000    0.00000000    0.00000000
     atom    2 type  1   force =     0.00000000    0.00000000    0.00000000
     The SCF correction term to forces
     atom    1 type  1   force =     0.00000000   -0.00000000    0.00000000
     atom    2 type  1   force =    -0.00000000    0.00000000    0.00000000

     Total force =     0.000000     Total SCF correction =     0.000000


     Computing stress (Cartesian axis) and pressure

          total   stress  (Ry/bohr**3)                   (kbar)     P=    0.06
   0.00000041   0.00000000  -0.00000000          0.06      0.00     -0.00
   0.00000000   0.00000041   0.00000000          0.00      0.06      0.00
  -0.00000000  -0.00000000   0.00000041         -0.00     -0.00      0.06

     kinetic stress (kbar)   2103.85     -0.00     -0.00
                               -0.00   2103.85      0.00
                               -0.00      0.00   2103.85

     local   stress (kbar)   -944.71      0.00      0.00
                                0.00   -944.71     -0.00
                                0.00     -0.00   -944.71

     nonloc. stress (kbar)   2341.65      0.00      0.00
                                0.00   2341.65     -0.00
                                0.00     -0.00   2341.65

     hartree stress (kbar)    201.42     -0.00     -0.00
                               -0.00    201.42      0.00
                               -0.00      0.00    201.42

     exc-cor stress (kbar)   -775.39      0.00     -0.00
                                0.00   -775.39      0.00
                               -0.00      0.00   -775.39

     corecor stress (kbar)      0.00      0.00      0.00
                                0.00      0.00      0.00
                                0.00      0.00      0.00

     ewald   stress (kbar)  -2926.75      0.00     -0.00
                                0.00  -2926.75      0.00
                               -0.00      0.00  -2926.75

     hubbard stress (kbar)      0.00      0.00      0.00
                                0.00      0.00      0.00
                                0.00      0.00      0.00

     london  stress (kbar)      0.00      0.00      0.00
                                0.00      0.00      0.00
                                0.00      0.00      0.00

     XDM     stress (kbar)      0.00      0.00      0.00
                                0.00      0.00      0.00
                                0.00      0.00      0.00

     dft-nl  stress (kbar)      0.00      0.00      0.00
                                0.00      0.00      0.00
                                0.00      0.00      0.00

     TS-vdW  stress (kbar)      0.00      0.00      0.00
                                0.00      0.00      0.00
                                0.00      0.00      0.00



     bfgs converged in   4 scf cycles and   3 bfgs steps
     (criteria: energy <  1.0E-04 Ry, force <  1.0E-03Ry/Bohr, cell <  1.0E-01kbar)

     End of BFGS Geometry Optimization

     Final enthalpy =     -15.7286044569 Ry
Begin final coordinates
     new unit-cell volume =    278.57097 a.u.^3 (    41.27996 Ang^3 )
     density =      2.25959 g/cm^3

CELL_PARAMETERS (alat= 10.20000000)
  -0.508200530   0.000000000   0.508200530
  -0.000000000   0.508200530   0.508200530
  -0.508200530   0.508200530   0.000000000

ATOMIC_POSITIONS (crystal)
Si      -0.000000000  -0.000000000   0.000000000
Si       0.250000000   0.250000000   0.250000000
End final coordinates



     A final scf calculation at the relaxed structure.
     The G-vectors are recalculated for the final unit cell
     Results may differ from those at the preceding step.

     G-vector sticks info
     --------------------
     sticks:   dense  smooth     PW     G-vecs:    dense   smooth      PW
     Sum         889     439    139                17477     6183    1067



     bravais-lattice index     =            2
     lattice parameter (alat)  =      10.2000  a.u.
     unit-cell volume          =     278.5710 (a.u.)^3
     number of atoms/cell      =            2
     number of atomic types    =            1
     number of electrons       =         8.00
     number of Kohn-Sham states=            4
     kinetic-energy cutoff     =      30.0000  Ry
     charge density cutoff     =     240.0000  Ry
     convergence threshold     =      1.0E-10
     mixing beta               =       0.7000
     number of iterations used =            8  plain     mixing
     Exchange-correlation      =  SLA  PW   PBE  PBE ( 1  4  3  4 0 0)

     celldm(1)=  10.200000  celldm(2)=   0.000000  celldm(3)=   0.000000
     celldm(4)=   0.000000  celldm(5)=   0.000000  celldm(6)=   0.000000

     crystal axes: (cart. coord. in units of alat)
               a(1) = (  -0.508201   0.000000   0.508201 )
               a(2) = (  -0.000000   0.508201   0.508201 )
               a(3) = (  -0.508201   0.508201   0.000000 )

     reciprocal axes: (cart. coord. in units 2 pi/alat)
               b(1) = ( -0.983864 -0.983864  0.983864 )
               b(2) = (  0.983864  0.983864  0.983864 )
               b(3) = ( -0.983864  0.983864 -0.983864 )


     PseudoPot. # 1 for Si read from file:
     ./Si.pbe-rrkj.UPF
     MD5 check sum: cf7ab5690cd9a85b22c4813f7e365554
     Pseudo is Norm-conserving, Zval =  4.0
     Generated by new atomic code, or converted to UPF format
     Using radial grid of  883 points,  3 beta functions with:
                l(1) =   0
                l(2) =   0
                l(3) =   1

     atomic species   valence    mass     pseudopotential
        Si             4.00    28.08600     Si( 1.00)

     48 Sym. Ops., with inversion, found (24 have fractional translation)


                                    s                        frac. trans.

      isym =  1     identity

 cryst.   s( 1) = (     1          0          0      )
                  (     0          1          0      )
                  (     0          0          1      )

 cart.    s( 1) = (  1.0000000  0.0000000  0.0000000 )
                  (  0.0000000  1.0000000  0.0000000 )
                  (  0.0000000  0.0000000  1.0000000 )


      isym =  2     180 deg rotation - cart. axis [0,0,1]

 cryst.   s( 2) = (     0          1         -1      )
                  (     1          0         -1      )
                  (     0          0         -1      )

 cart.    s( 2) = ( -1.0000000  0.0000000  0.0000000 )
                  (  0.0000000 -1.0000000  0.0000000 )
                  (  0.0000000  0.0000000  1.0000000 )


      isym =  3     180 deg rotation - cart. axis [0,1,0]

 cryst.   s( 3) = (    -1          0          0      )
                  (    -1          0          1      )
                  (    -1          1          0      )

 cart.    s( 3) = ( -1.0000000  0.0000000  0.0000000 )
                  (  0.0000000  1.0000000  0.0000000 )
                  (  0.0000000  0.0000000 -1.0000000 )


      isym =  4     180 deg rotation - cart. axis [1,0,0]

 cryst.   s( 4) = (     0         -1          1      )
                  (     0         -1          0      )
                  (     1         -1          0      )

 cart.    s( 4) = (  1.0000000  0.0000000  0.0000000 )
                  (  0.0000000 -1.0000000  0.0000000 )
                  (  0.0000000  0.0000000 -1.0000000 )


      isym =  5     180 deg rotation - cart. axis [1,1,0]

 cryst.   s( 5) = (     0         -1          0      )    f =( -0.2500000 )
                  (    -1          0          0      )       ( -0.2500000 )
                  (     0          0         -1      )       ( -0.2500000 )

 cart.    s( 5) = (  0.0000000  1.0000000  0.0000000 )    f =(  0.2541003 )
                  (  1.0000000  0.0000000  0.0000000 )       ( -0.2541003 )
                  (  0.0000000  0.0000000 -1.0000000 )       ( -0.2541003 )


      isym =  6     180 deg rotation - cart. axis [1,-1,0]

 cryst.   s( 6) = (    -1          0          1      )    f =( -0.2500000 )
                  (     0         -1          1      )       ( -0.2500000 )
                  (     0          0          1      )       ( -0.2500000 )

 cart.    s( 6) = (  0.0000000 -1.0000000  0.0000000 )    f =(  0.2541003 )
                  ( -1.0000000  0.0000000  0.0000000 )       ( -0.2541003 )
                  (  0.0000000  0.0000000 -1.0000000 )       ( -0.2541003 )


      isym =  7      90 deg rotation - cart. axis [0,0,-1]

 cryst.   s( 7) = (     0          1          0      )    f =( -0.2500000 )
                  (     0          1         -1      )       ( -0.2500000 )
                  (    -1          1          0      )       ( -0.2500000 )

 cart.    s( 7) = (  0.0000000  1.0000000  0.0000000 )    f =(  0.2541003 )
                  ( -1.0000000  0.0000000  0.0000000 )       ( -0.2541003 )
                  (  0.0000000  0.0000000  1.0000000 )       ( -0.2541003 )


      isym =  8      90 deg rotation - cart. axis [0,0,1]

 cryst.   s( 8) = (     1          0         -1      )    f =( -0.2500000 )
                  (     1          0          0      )       ( -0.2500000 )
                  (     1         -1          0      )       ( -0.2500000 )

 cart.    s( 8) = (  0.0000000 -1.0000000  0.0000000 )    f =(  0.2541003 )
                  (  1.0000000  0.0000000  0.0000000 )       ( -0.2541003 )
                  (  0.0000000  0.0000000  1.0000000 )       ( -0.2541003 )


      isym =  9     180 deg rotation - cart. axis [1,0,1]

 cryst.   s( 9) = (    -1          0          0      )    f =( -0.2500000 )
                  (     0          0         -1      )       ( -0.2500000 )
                  (     0         -1          0      )       ( -0.2500000 )

 cart.    s( 9) = (  0.0000000  0.0000000  1.0000000 )    f =(  0.2541003 )
                  (  0.0000000 -1.0000000  0.0000000 )       ( -0.2541003 )
                  (  1.0000000  0.0000000  0.0000000 )       ( -0.2541003 )


      isym = 10     180 deg rotation - cart. axis [-1,0,1]

 cryst.   s(10) = (     1          0          0      )    f =( -0.2500000 )
                  (     1         -1          0      )       ( -0.2500000 )
                  (     1          0         -1      )       ( -0.2500000 )

 cart.    s(10) = (  0.0000000  0.0000000 -1.0000000 )    f =(  0.2541003 )
                  (  0.0000000 -1.0000000  0.0000000 )       ( -0.2541003 )
                  ( -1.0000000  0.0000000  0.0000000 )       ( -0.2541003 )


      isym = 11      90 deg rotation - cart. axis [0,1,0]

 cryst.   s(11) = (     0          1         -1      )    f =( -0.2500000 )
                  (    -1          1          0      )       ( -0.2500000 )
                  (     0          1          0      )       ( -0.2500000 )

 cart.    s(11) = (  0.0000000  0.0000000  1.0000000 )    f =(  0.2541003 )
                  (  0.0000000  1.0000000  0.0000000 )       ( -0.2541003 )
                  ( -1.0000000  0.0000000  0.0000000 )       ( -0.2541003 )


      isym = 12      90 deg rotation - cart. axis [0,-1,0]

 cryst.   s(12) = (     0         -1          1      )    f =( -0.2500000 )
                  (     0          0          1      )       ( -0.2500000 )
                  (    -1          0          1      )       ( -0.2500000 )

 cart.    s(12) = (  0.0000000  0.0000000 -1.0000000 )    f =(  0.2541003 )
                  (  0.0000000  1.0000000  0.0000000 )       ( -0.2541003 )
                  (  1.0000000  0.0000000  0.0000000 )       ( -0.2541003 )


      isym = 13     180 deg rotation - cart. axis [0,1,1]

 cryst.   s(13) = (    -1          1          0      )    f =( -0.2500000 )
                  (     0          1          0      )       ( -0.2500000 )
                  (     0          1         -1      )       ( -0.2500000 )

 cart.    s(13) = ( -1.0000000  0.0000000  0.0000000 )    f =(  0.2541003 )
                  (  0.0000000  0.0000000  1.0000000 )       ( -0.2541003 )
                  (  0.0000000  1.0000000  0.0000000 )       ( -0.2541003 )


      isym = 14     180 deg rotation - cart. axis [0,1,-1]

 cryst.   s(14) = (     0          0         -1      )    f =( -0.2500000 )
                  (     0         -1          0      )       ( -0.2500000 )
                  (    -1          0          0      )       ( -0.2500000 )

 cart.    s(14) = ( -1.0000000  0.0000000  0.0000000 )    f =(  0.2541003 )
                  (  0.0000000  0.0000000 -1.0000000 )       ( -0.2541003 )
                  (  0.0000000 -1.0000000  0.0000000 )       ( -0.2541003 )


      isym = 15      90 deg rotation - cart. axis [-1,0,0]

 cryst.   s(15) = (     0          0          1      )    f =( -0.2500000 )
                  (    -1          0          1      )       ( -0.2500000 )
                  (     0         -1          1      )       ( -0.2500000 )

 cart.    s(15) = (  1.0000000  0.0000000  0.0000000 )    f =(  0.2541003 )
                  (  0.0000000  0.0000000  1.0000000 )       ( -0.2541003 )
                  (  0.0000000 -1.0000000  0.0000000 )       ( -0.2541003 )


      isym = 16      90 deg rotation - cart. axis [1,0,0]

 cryst.   s(16) = (     1         -1          0      )    f =( -0.2500000 )
                  (     1          0         -1      )       ( -0.2500000 )
                  (     1          0          0      )       ( -0.2500000 )

 cart.    s(16) = (  1.0000000  0.0000000  0.0000000 )    f =(  0.2541003 )
                  (  0.0000000  0.0000000 -1.0000000 )       ( -0.2541003 )
                  (  0.0000000  1.0000000  0.0000000 )       ( -0.2541003 )


      isym = 17     120 deg rotation - cart. axis [-1,-1,-1]

 cryst.   s(17) = (    -1          0          1      )
                  (    -1          1          0      )
                  (    -1          0          0      )

 cart.    s(17) = (  0.0000000  1.0000000  0.0000000 )
                  (  0.0000000  0.0000000  1.0000000 )
                  (  1.0000000  0.0000000  0.0000000 )


      isym = 18     120 deg rotation - cart. axis [-1,1,1]

 cryst.   s(18) = (     0          1          0      )
                  (     0          0          1      )
                  (     1          0          0      )

 cart.    s(18) = (  0.0000000 -1.0000000  0.0000000 )
                  (  0.0000000  0.0000000  1.0000000 )
                  ( -1.0000000  0.0000000  0.0000000 )


      isym = 19     120 deg rotation - cart. axis [1,1,-1]

 cryst.   s(19) = (     1          0         -1      )
                  (     0          0         -1      )
                  (     0          1         -1      )

 cart.    s(19) = (  0.0000000  1.0000000  0.0000000 )
                  (  0.0000000  0.0000000 -1.0000000 )
                  ( -1.0000000  0.0000000  0.0000000 )


      isym = 20     120 deg rotation - cart. axis [1,-1,1]

 cryst.   s(20) = (     0         -1          0      )
                  (     1         -1          0      )
                  (     0         -1          1      )

 cart.    s(20) = (  0.0000000 -1.0000000  0.0000000 )
                  (  0.0000000  0.0000000 -1.0000000 )
                  (  1.0000000  0.0000000  0.0000000 )


      isym = 21     120 deg rotation - cart. axis [1,1,1]

 cryst.   s(21) = (     0          0         -1      )
                  (     0          1         -1      )
                  (     1          0         -1      )

 cart.    s(21) = (  0.0000000  0.0000000  1.0000000 )
                  (  1.0000000  0.0000000  0.0000000 )
                  (  0.0000000  1.0000000  0.0000000 )


      isym = 22     120 deg rotation - cart. axis [-1,1,-1]

 cryst.   s(22) = (    -1          1          0      )
                  (    -1          0          0      )
                  (    -1          0          1      )

 cart.    s(22) = (  0.0000000  0.0000000  1.0000000 )
                  ( -1.0000000  0.0000000  0.0000000 )
                  (  0.0000000 -1.0000000  0.0000000 )


      isym = 23     120 deg rotation - cart. axis [1,-1,-1]

 cryst.   s(23) = (     0          0          1      )
                  (     1          0          0      )
                  (     0          1          0      )

 cart.    s(23) = (  0.0000000  0.0000000 -1.0000000 )
                  ( -1.0000000  0.0000000  0.0000000 )
                  (  0.0000000  1.0000000  0.0000000 )


      isym = 24     120 deg rotation - cart. axis [-1,-1,1]

 cryst.   s(24) = (     1         -1          0      )
                  (     0         -1          1      )
                  (     0         -1          0      )

 cart.    s(24) = (  0.0000000  0.0000000 -1.0000000 )
                  (  1.0000000  0.0000000  0.0000000 )
                  (  0.0000000 -1.0000000  0.0000000 )


      isym = 25     inversion

 cryst.   s(25) = (    -1          0          0      )    f =( -0.2500000 )
                  (     0         -1          0      )       ( -0.2500000 )
                  (     0          0         -1      )       ( -0.2500000 )

 cart.    s(25) = ( -1.0000000  0.0000000  0.0000000 )    f =(  0.2541003 )
                  (  0.0000000 -1.0000000  0.0000000 )       ( -0.2541003 )
                  (  0.0000000  0.0000000 -1.0000000 )       ( -0.2541003 )


      isym = 26     inv. 180 deg rotation - cart. axis [0,0,1]

 cryst.   s(26) = (     0         -1          1      )    f =( -0.2500000 )
                  (    -1          0          1      )       ( -0.2500000 )
                  (     0          0          1      )       ( -0.2500000 )

 cart.    s(26) = (  1.0000000  0.0000000  0.0000000 )    f =(  0.2541003 )
                  (  0.0000000  1.0000000  0.0000000 )       ( -0.2541003 )
                  (  0.0000000  0.0000000 -1.0000000 )       ( -0.2541003 )


      isym = 27     inv. 180 deg rotation - cart. axis [0,1,0]

 cryst.   s(27) = (     1          0          0      )    f =( -0.2500000 )
                  (     1          0         -1      )       ( -0.2500000 )
                  (     1         -1          0      )       ( -0.2500000 )

 cart.    s(27) = (  1.0000000  0.0000000  0.0000000 )    f =(  0.2541003 )
                  (  0.0000000 -1.0000000  0.0000000 )       ( -0.2541003 )
                  (  0.0000000  0.0000000  1.0000000 )       ( -0.2541003 )


      isym = 28     inv. 180 deg rotation - cart. axis [1,0,0]

 cryst.   s(28) = (     0          1         -1      )    f =( -0.2500000 )
                  (     0          1          0      )       ( -0.2500000 )
                  (    -1          1          0      )       ( -0.2500000 )

 cart.    s(28) = ( -1.0000000  0.0000000  0.0000000 )    f =(  0.2541003 )
                  (  0.0000000  1.0000000  0.0000000 )       ( -0.2541003 )
                  (  0.0000000  0.0000000  1.0000000 )       ( -0.2541003 )


      isym = 29     inv. 180 deg rotation - cart. axis [1,1,0]

 cryst.   s(29) = (     0          1          0      )
                  (     1          0          0      )
[...]


      isym = 40     inv.  90 deg rotation - cart. axis [1,0,0]

 cryst.   s(40) = (    -1          1          0      )
                  (    -1          0          1      )
                  (    -1          0          0      )

 cart.    s(40) = ( -1.0000000  0.0000000  0.0000000 )
                  (  0.0000000  0.0000000  1.0000000 )
                  (  0.0000000 -1.0000000  0.0000000 )


      isym = 41     inv. 120 deg rotation - cart. axis [-1,-1,-1]

 cryst.   s(41) = (     1          0         -1      )    f =( -0.2500000 )
                  (     1         -1          0      )       ( -0.2500000 )
                  (     1          0          0      )       ( -0.2500000 )

 cart.    s(41) = (  0.0000000 -1.0000000  0.0000000 )    f =(  0.2541003 )
                  (  0.0000000  0.0000000 -1.0000000 )       ( -0.2541003 )
                  ( -1.0000000  0.0000000  0.0000000 )       ( -0.2541003 )


      isym = 42     inv. 120 deg rotation - cart. axis [-1,1,1]

 cryst.   s(42) = (     0         -1          0      )    f =( -0.2500000 )
                  (     0          0         -1      )       ( -0.2500000 )
                  (    -1          0          0      )       ( -0.2500000 )

 cart.    s(42) = (  0.0000000  1.0000000  0.0000000 )    f =(  0.2541003 )
                  (  0.0000000  0.0000000 -1.0000000 )       ( -0.2541003 )
                  (  1.0000000  0.0000000  0.0000000 )       ( -0.2541003 )


      isym = 43     inv. 120 deg rotation - cart. axis [1,1,-1]

 cryst.   s(43) = (    -1          0          1      )    f =( -0.2500000 )
                  (     0          0          1      )       ( -0.2500000 )
                  (     0         -1          1      )       ( -0.2500000 )

 cart.    s(43) = (  0.0000000 -1.0000000  0.0000000 )    f =(  0.2541003 )
                  (  0.0000000  0.0000000  1.0000000 )       ( -0.2541003 )
                  (  1.0000000  0.0000000  0.0000000 )       ( -0.2541003 )


      isym = 44     inv. 120 deg rotation - cart. axis [1,-1,1]

 cryst.   s(44) = (     0          1          0      )    f =( -0.2500000 )
                  (    -1          1          0      )       ( -0.2500000 )
                  (     0          1         -1      )       ( -0.2500000 )

 cart.    s(44) = (  0.0000000  1.0000000  0.0000000 )    f =(  0.2541003 )
                  (  0.0000000  0.0000000  1.0000000 )       ( -0.2541003 )
                  ( -1.0000000  0.0000000  0.0000000 )       ( -0.2541003 )


      isym = 45     inv. 120 deg rotation - cart. axis [1,1,1]

 cryst.   s(45) = (     0          0          1      )    f =( -0.2500000 )
                  (     0         -1          1      )       ( -0.2500000 )
                  (    -1          0          1      )       ( -0.2500000 )

 cart.    s(45) = (  0.0000000  0.0000000 -1.0000000 )    f =(  0.2541003 )
                  ( -1.0000000  0.0000000  0.0000000 )       ( -0.2541003 )
                  (  0.0000000 -1.0000000  0.0000000 )       ( -0.2541003 )


      isym = 46     inv. 120 deg rotation - cart. axis [-1,1,-1]

 cryst.   s(46) = (     1         -1          0      )    f =( -0.2500000 )
                  (     1          0          0      )       ( -0.2500000 )
                  (     1          0         -1      )       ( -0.2500000 )

 cart.    s(46) = (  0.0000000  0.0000000 -1.0000000 )    f =(  0.2541003 )
                  (  1.0000000  0.0000000  0.0000000 )       ( -0.2541003 )
                  (  0.0000000  1.0000000  0.0000000 )       ( -0.2541003 )


      isym = 47     inv. 120 deg rotation - cart. axis [1,-1,-1]

 cryst.   s(47) = (     0          0         -1      )    f =( -0.2500000 )
                  (    -1          0          0      )       ( -0.2500000 )
                  (     0         -1          0      )       ( -0.2500000 )

 cart.    s(47) = (  0.0000000  0.0000000  1.0000000 )    f =(  0.2541003 )
                  (  1.0000000  0.0000000  0.0000000 )       ( -0.2541003 )
                  (  0.0000000 -1.0000000  0.0000000 )       ( -0.2541003 )


      isym = 48     inv. 120 deg rotation - cart. axis [-1,-1,1]

 cryst.   s(48) = (    -1          1          0      )    f =( -0.2500000 )
                  (     0          1         -1      )       ( -0.2500000 )
                  (     0          1          0      )       ( -0.2500000 )

 cart.    s(48) = (  0.0000000  0.0000000  1.0000000 )    f =(  0.2541003 )
                  ( -1.0000000  0.0000000  0.0000000 )       ( -0.2541003 )
                  (  0.0000000  1.0000000  0.0000000 )       ( -0.2541003 )


     point group O_h (m-3m)
     there are 10 classes
     the character table:

       E     8C3   3C2   6C4   6C2'  i     8S6   3s_h  6S4   6s_d
A_1g   1.00  1.00  1.00  1.00  1.00  1.00  1.00  1.00  1.00  1.00
A_2g   1.00  1.00  1.00 -1.00 -1.00  1.00  1.00  1.00 -1.00 -1.00
E_g    2.00 -1.00  2.00  0.00  0.00  2.00 -1.00  2.00  0.00  0.00
T_1g   3.00  0.00 -1.00  1.00 -1.00  3.00  0.00 -1.00  1.00 -1.00
T_2g   3.00  0.00 -1.00 -1.00  1.00  3.00  0.00 -1.00 -1.00  1.00
A_1u   1.00  1.00  1.00  1.00  1.00 -1.00 -1.00 -1.00 -1.00 -1.00
A_2u   1.00  1.00  1.00 -1.00 -1.00 -1.00 -1.00 -1.00  1.00  1.00
E_u    2.00 -1.00  2.00  0.00  0.00 -2.00  1.00 -2.00  0.00  0.00
T_1u   3.00  0.00 -1.00  1.00 -1.00 -3.00  0.00  1.00 -1.00  1.00
T_2u   3.00  0.00 -1.00 -1.00  1.00 -3.00  0.00  1.00  1.00 -1.00

     the symmetry operations in each class and the name of the first element:

     E        1
          identity
     8C3     17   19   20   18   24   21   22   23
          120 deg rotation - cart. axis [-1,-1,-1]
     3C2      2    4    3
          180 deg rotation - cart. axis [0,0,1]
     6C4      7    8   15   16   12   11
           90 deg rotation - cart. axis [0,0,-1]
     6C2'     5    6   14   13   10    9
          180 deg rotation - cart. axis [1,1,0]
     i       25
          inversion
     8S6     41   43   44   42   48   45   46   47
          inv. 120 deg rotation - cart. axis [-1,-1,-1]
     3s_h    26   28   27
          inv. 180 deg rotation - cart. axis [0,0,1]
     6S4     31   32   39   40   36   35
          inv.  90 deg rotation - cart. axis [0,0,-1]
     6s_d    29   30   38   37   34   33
          inv. 180 deg rotation - cart. axis [1,1,0]

   Cartesian axes

     site n.     atom                  positions (alat units)
         1           Si  tau(   1) = (  -0.0000000   0.0000000  -0.0000000  )
         2           Si  tau(   2) = (  -0.2541003   0.2541003   0.2541003  )

   Crystallographic axes

     site n.     atom                  positions (cryst. coord.)
         1           Si  tau(   1) = ( -0.0000000 -0.0000000  0.0000000  )
         2           Si  tau(   2) = (  0.2500000  0.2500000  0.2500000  )

     number of k points=     8
                       cart. coord. in units 2pi/alat
        k(    1) = (   0.0000000   0.0000000   0.0000000), wk =   0.0312500
        k(    2) = (  -0.2459659   0.2459659  -0.2459659), wk =   0.2500000
        k(    3) = (   0.4919318  -0.4919318   0.4919318), wk =   0.1250000
        k(    4) = (   0.0000000   0.4919318   0.0000000), wk =   0.1875000
        k(    5) = (   0.7378977  -0.2459659   0.7378977), wk =   0.7500000
        k(    6) = (   0.4919318   0.0000000   0.4919318), wk =   0.3750000
        k(    7) = (   0.0000000  -0.9838636   0.0000000), wk =   0.0937500
        k(    8) = (  -0.4919318  -0.9838636   0.0000000), wk =   0.1875000

                       cryst. coord.
        k(    1) = (   0.0000000   0.0000000   0.0000000), wk =   0.0312500
        k(    2) = (   0.0000000   0.0000000   0.2500000), wk =   0.2500000
        k(    3) = (   0.0000000   0.0000000  -0.5000000), wk =   0.1250000
        k(    4) = (   0.0000000   0.2500000   0.2500000), wk =   0.1875000
        k(    5) = (   0.0000000   0.2500000  -0.5000000), wk =   0.7500000
        k(    6) = (   0.0000000   0.2500000  -0.2500000), wk =   0.3750000
        k(    7) = (  -0.0000000  -0.5000000  -0.5000000), wk =   0.0937500
        k(    8) = (   0.2500000  -0.5000000  -0.2500000), wk =   0.1875000

     Dense  grid:    17477 G-vectors     FFT dimensions: (  40,  40,  40)

     Smooth grid:     6183 G-vectors     FFT dimensions: (  25,  25,  25)

     Estimated max dynamical RAM per process >      12.05MB

     Initial potential from superposition of free atoms

     starting charge    7.99889, renormalised to    8.00000
     Starting wfc are    8 randomized atomic wfcs

     Writing output data file silicon.save

     total cpu time spent up to now is        8.9 secs

     Self-consistent Calculation

     iteration #  1     ecut=    30.00 Ry     beta=0.70
     Davidson diagonalization with overlap
     ethr =  1.00E-06,  avg # of iterations =  6.2

     total cpu time spent up to now is        9.2 secs

     total energy              =     -15.72590910 Ry
     Harris-Foulkes estimate   =     -15.74038613 Ry
     estimated scf accuracy    <       0.06240714 Ry

     iteration #  2     ecut=    30.00 Ry     beta=0.70
     Davidson diagonalization with overlap
     ethr =  7.80E-04,  avg # of iterations =  1.0

     total cpu time spent up to now is        9.3 secs

     total energy              =     -15.72819093 Ry
     Harris-Foulkes estimate   =     -15.72814272 Ry
     estimated scf accuracy    <       0.00290460 Ry

     iteration #  3     ecut=    30.00 Ry     beta=0.70
     Davidson diagonalization with overlap
     ethr =  3.63E-05,  avg # of iterations =  2.1

     total cpu time spent up to now is        9.5 secs

     total energy              =     -15.72857888 Ry
     Harris-Foulkes estimate   =     -15.72858916 Ry
     estimated scf accuracy    <       0.00004947 Ry

     iteration #  4     ecut=    30.00 Ry     beta=0.70
     Davidson diagonalization with overlap
     ethr =  6.18E-07,  avg # of iterations =  2.9

     total cpu time spent up to now is        9.7 secs

     total energy              =     -15.72861724 Ry
     Harris-Foulkes estimate   =     -15.72861644 Ry
     estimated scf accuracy    <       0.00000142 Ry

     iteration #  5     ecut=    30.00 Ry     beta=0.70
     Davidson diagonalization with overlap
     ethr =  1.77E-08,  avg # of iterations =  3.0

     total cpu time spent up to now is        9.9 secs

     total energy              =     -15.72861772 Ry
     Harris-Foulkes estimate   =     -15.72861776 Ry
     estimated scf accuracy    <       0.00000012 Ry

     iteration #  6     ecut=    30.00 Ry     beta=0.70
     Davidson diagonalization with overlap
     ethr =  1.50E-09,  avg # of iterations =  2.1

     total cpu time spent up to now is       10.0 secs

     total energy              =     -15.72861774 Ry
     Harris-Foulkes estimate   =     -15.72861775 Ry
     estimated scf accuracy    <       0.00000002 Ry

     iteration #  7     ecut=    30.00 Ry     beta=0.70
     Davidson diagonalization with overlap
     ethr =  1.93E-10,  avg # of iterations =  2.2

     total cpu time spent up to now is       10.2 secs

     total energy              =     -15.72861774 Ry
     Harris-Foulkes estimate   =     -15.72861774 Ry
     estimated scf accuracy    <          6.2E-10 Ry

     iteration #  8     ecut=    30.00 Ry     beta=0.70
     Davidson diagonalization with overlap
     ethr =  7.70E-12,  avg # of iterations =  2.0

     total cpu time spent up to now is       10.3 secs

     End of self-consistent calculation

          k = 0.0000 0.0000 0.0000 (   749 PWs)   bands (ev):

    -5.7485   5.9554   5.9554   5.9554

     occupation numbers
     1.0000   1.0000   1.0000   1.0000

          k =-0.2460 0.2460-0.2460 (   778 PWs)   bands (ev):

    -4.9699   2.1085   5.2145   5.2145

     occupation numbers
     1.0000   1.0000   1.0000   1.0000

          k = 0.4919-0.4919 0.4919 (   778 PWs)   bands (ev):

    -3.4865  -0.8494   4.7831   4.7831

     occupation numbers
     1.0000   1.0000   1.0000   1.0000

          k = 0.0000 0.4919 0.0000 (   769 PWs)   bands (ev):

    -4.6946   2.4763   4.1200   4.1200

     occupation numbers
     1.0000   1.0000   1.0000   1.0000

          k = 0.7379-0.2460 0.7379 (   768 PWs)   bands (ev):

    -3.1056  -0.3052   2.5250   3.8104

     occupation numbers
     1.0000   1.0000   1.0000   1.0000

          k = 0.4919 0.0000 0.4919 (   784 PWs)   bands (ev):

    -3.7603   0.5713   2.3199   4.6609

     occupation numbers
     1.0000   1.0000   1.0000   1.0000

          k = 0.0000-0.9839 0.0000 (   774 PWs)   bands (ev):

    -1.7137  -1.7137   3.1806   3.1806

     occupation numbers
     1.0000   1.0000   1.0000   1.0000

          k =-0.4919-0.9839 0.0000 (   772 PWs)   bands (ev):

    -1.5597  -1.5597   2.2273   2.2273

     occupation numbers
     1.0000   1.0000   1.0000   1.0000

     highest occupied level (ev):     5.9554

!    total energy              =     -15.72861774 Ry
     Harris-Foulkes estimate   =     -15.72861774 Ry
     estimated scf accuracy    <          5.3E-11 Ry

     The total energy is the sum of the following terms:

     one-electron contribution =       4.54550695 Ry
     hartree contribution      =       1.14426999 Ry
     xc contribution           =      -4.79133747 Ry
     ewald contribution        =     -16.62705721 Ry

     convergence has been achieved in   8 iterations

     Forces acting on atoms (cartesian axes, Ry/au):

     atom    1 type  1   force =     0.00000000    0.00000000    0.00000000
     atom    2 type  1   force =     0.00000000    0.00000000    0.00000000
     The non-local contrib.  to forces
     atom    1 type  1   force =    -0.00000000   -0.00000000    0.00000000
     atom    2 type  1   force =     0.00000000    0.00000000   -0.00000000
     The ionic contribution  to forces
     atom    1 type  1   force =    -0.00000000    0.00000000    0.00000000
     atom    2 type  1   force =     0.00000000   -0.00000000   -0.00000000
     The local contribution  to forces
     atom    1 type  1   force =    -0.00000000    0.00000000    0.00000000
     atom    2 type  1   force =    -0.00000000    0.00000000    0.00000000
     The core correction contribution to forces
     atom    1 type  1   force =     0.00000000    0.00000000    0.00000000
     atom    2 type  1   force =     0.00000000    0.00000000    0.00000000
     The Hubbard contrib.    to forces
     atom    1 type  1   force =     0.00000000    0.00000000    0.00000000
     atom    2 type  1   force =     0.00000000    0.00000000    0.00000000
     The SCF correction term to forces
     atom    1 type  1   force =     0.00000000   -0.00000000   -0.00000000
     atom    2 type  1   force =    -0.00000000    0.00000000    0.00000000

     Total force =     0.000000     Total SCF correction =     0.000000


     Computing stress (Cartesian axis) and pressure

          total   stress  (Ry/bohr**3)                   (kbar)     P=    0.06
   0.00000041   0.00000000  -0.00000000          0.06      0.00     -0.00
   0.00000000   0.00000041   0.00000000          0.00      0.06      0.00
  -0.00000000   0.00000000   0.00000041         -0.00      0.00      0.06

     kinetic stress (kbar)   2103.84     -0.00      0.00
                               -0.00   2103.84      0.00
                                0.00      0.00   2103.84

     local   stress (kbar)   -944.76      0.00      0.00
                                0.00   -944.76     -0.00
                                0.00     -0.00   -944.76

     nonloc. stress (kbar)   2341.70      0.00      0.00
                                0.00   2341.70     -0.00
                                0.00     -0.00   2341.70

     hartree stress (kbar)    201.42     -0.00     -0.00
                               -0.00    201.42      0.00
                               -0.00      0.00    201.42

     exc-cor stress (kbar)   -775.39      0.00      0.00
                                0.00   -775.39      0.00
                                0.00      0.00   -775.39

     corecor stress (kbar)      0.00      0.00      0.00
                                0.00      0.00      0.00
                                0.00      0.00      0.00

     ewald   stress (kbar)  -2926.75      0.00     -0.00
                                0.00  -2926.75      0.00
                               -0.00      0.00  -2926.75

     hubbard stress (kbar)      0.00      0.00      0.00
                                0.00      0.00      0.00
                                0.00      0.00      0.00

     london  stress (kbar)      0.00      0.00      0.00
                                0.00      0.00      0.00
                                0.00      0.00      0.00

     XDM     stress (kbar)      0.00      0.00      0.00
                                0.00      0.00      0.00
                                0.00      0.00      0.00

     dft-nl  stress (kbar)      0.00      0.00      0.00
                                0.00      0.00      0.00
                                0.00      0.00      0.00

     TS-vdW  stress (kbar)      0.00      0.00      0.00
                                0.00      0.00      0.00
                                0.00      0.00      0.00



     Writing output data file silicon.save

     init_run     :      0.64s CPU      0.70s WALL (       2 calls)
     electrons    :      4.98s CPU      5.61s WALL (       5 calls)
     update_pot   :      1.47s CPU      1.71s WALL (       3 calls)
     forces       :      0.67s CPU      0.70s WALL (       5 calls)
     stress       :      1.32s CPU      1.42s WALL (       5 calls)

     Called by init_run:
     wfcinit      :      0.11s CPU      0.12s WALL (       2 calls)
     wfcinit:atom :      0.00s CPU      0.00s WALL (      16 calls)
     wfcinit:wfcr :      0.10s CPU      0.11s WALL (      16 calls)
     potinit      :      0.25s CPU      0.28s WALL (       2 calls)

     Called by electrons:
     c_bands      :      2.99s CPU      3.36s WALL (      35 calls)
     sum_band     :      0.77s CPU      0.85s WALL (      35 calls)
     v_of_rho     :      1.15s CPU      1.30s WALL (      38 calls)
     v_h          :      0.07s CPU      0.07s WALL (      38 calls)
     v_xc         :      1.08s CPU      1.22s WALL (      38 calls)
     mix_rho      :      0.10s CPU      0.11s WALL (      35 calls)

     Called by c_bands:
     init_us_2    :      0.08s CPU      0.09s WALL (     656 calls)
     cegterg      :      2.92s CPU      3.28s WALL (     280 calls)

     Called by sum_band:

     Called by *egterg:
     h_psi        :      2.80s CPU      3.13s WALL (     936 calls)
     g_psi        :      0.01s CPU      0.01s WALL (     640 calls)
     cdiaghg      :      0.06s CPU      0.06s WALL (     880 calls)
     cegterg:over :      0.05s CPU      0.05s WALL (     640 calls)
     cegterg:upda :      0.05s CPU      0.07s WALL (     640 calls)
     cegterg:last :      0.02s CPU      0.02s WALL (     309 calls)

     Called by h_psi:
     h_psi:pot    :      2.79s CPU      3.11s WALL (     936 calls)
     h_psi:calbec :      0.05s CPU      0.05s WALL (     936 calls)
     vloc_psi     :      2.68s CPU      2.98s WALL (     936 calls)
     add_vuspsi   :      0.05s CPU      0.07s WALL (     936 calls)

     General routines
     calbec       :      0.05s CPU      0.06s WALL (    1136 calls)
     fft          :      0.78s CPU      0.87s WALL (     561 calls)
     ffts         :      0.04s CPU      0.05s WALL (      73 calls)
     fftw         :      2.78s CPU      3.10s WALL (    8026 calls)
     interpolate  :      0.16s CPU      0.18s WALL (      73 calls)
     davcio       :      0.00s CPU      0.00s WALL (      16 calls)

     Parallel routines
     fft_scatter  :      0.17s CPU      0.19s WALL (    8660 calls)

     PWSCF        :     9.34s CPU        10.50s WALL


   This run was terminated on:  14:47:15  22Jun2019

=------------------------------------------------------------------------------=
   JOB DONE.
=------------------------------------------------------------------------------=
