
     Program PWSCF v.7.1 starts on 11Feb2023 at 13:37:22 

# NOTE: lines of output removed 
