
     Program PROJWFC v.6.6 starts on  3Oct2021 at 13:49:10 

     This program is part of the open-source Quantum ESPRESSO suite
     for quantum simulation of materials; please cite
         "P. Giannozzi et al., J. Phys.:Condens. Matter 21 395502 (2009);
         "P. Giannozzi et al., J. Phys.:Condens. Matter 29 465901 (2017);
          URL http://www.quantum-espresso.org", 
     in publications or presentations arising from this work. More details at
     http://www.quantum-espresso.org/quote

     Parallel version (MPI), running on     1 processors

     MPI processes distributed on     1 nodes
     Fft bands division:     nmany     =       1

     Reading xml data from directory:

     ./out/aiida.save/
     file Fe.pbe-spn-kjpaw_psl.0.2.1.UPF: wavefunction(s)  3D renormalized

     IMPORTANT: XC functional enforced from input :
     Exchange-correlation= PBE
                           (   1   4   3   4   0   0   0)
     Any further DFT definition will be discarded
     Please, verify this is what you really want


     G-vector sticks info
     --------------------
     sticks:   dense  smooth     PW     G-vecs:    dense   smooth      PW
     Sum        2453     829    233                91965    17773    2601


     Check: negative core charge=   -0.000010

     Linear tetrahedron method (read from file) 
     [opt_tetra]  Linear tetrahedron method is used.

     Calling projwave .... 

  Problem Sizes 
  natomwfc =           52
  nbnd     =           40
  nkstot   =            2
  npwx     =         2240
  nkb      =           36


     Atomic states used for projection
     (read from pseudopotential files):

     state #   1: atom   1 (Fe ), wfc  1 (l=0 m= 1 s_z= 0.5)
     state #   2: atom   1 (Fe ), wfc  1 (l=0 m= 1 s_z=-0.5)
     state #   3: atom   1 (Fe ), wfc  2 (l=0 m= 1 s_z= 0.5)
     state #   4: atom   1 (Fe ), wfc  2 (l=0 m= 1 s_z=-0.5)
     state #   5: atom   1 (Fe ), wfc  3 (l=1 m= 1 s_z= 0.5)
     state #   6: atom   1 (Fe ), wfc  3 (l=1 m= 2 s_z= 0.5)
     state #   7: atom   1 (Fe ), wfc  3 (l=1 m= 3 s_z= 0.5)
     state #   8: atom   1 (Fe ), wfc  3 (l=1 m= 1 s_z=-0.5)
     state #   9: atom   1 (Fe ), wfc  3 (l=1 m= 2 s_z=-0.5)
     state #  10: atom   1 (Fe ), wfc  3 (l=1 m= 3 s_z=-0.5)
     state #  11: atom   1 (Fe ), wfc  4 (l=1 m= 1 s_z= 0.5)
     state #  12: atom   1 (Fe ), wfc  4 (l=1 m= 2 s_z= 0.5)
     state #  13: atom   1 (Fe ), wfc  4 (l=1 m= 3 s_z= 0.5)
     state #  14: atom   1 (Fe ), wfc  4 (l=1 m= 1 s_z=-0.5)
     state #  15: atom   1 (Fe ), wfc  4 (l=1 m= 2 s_z=-0.5)
     state #  16: atom   1 (Fe ), wfc  4 (l=1 m= 3 s_z=-0.5)
     state #  17: atom   1 (Fe ), wfc  5 (l=2 m= 1 s_z= 0.5)
     state #  18: atom   1 (Fe ), wfc  5 (l=2 m= 2 s_z= 0.5)
     state #  19: atom   1 (Fe ), wfc  5 (l=2 m= 3 s_z= 0.5)
     state #  20: atom   1 (Fe ), wfc  5 (l=2 m= 4 s_z= 0.5)
     state #  21: atom   1 (Fe ), wfc  5 (l=2 m= 5 s_z= 0.5)
     state #  22: atom   1 (Fe ), wfc  5 (l=2 m= 1 s_z=-0.5)
     state #  23: atom   1 (Fe ), wfc  5 (l=2 m= 2 s_z=-0.5)
     state #  24: atom   1 (Fe ), wfc  5 (l=2 m= 3 s_z=-0.5)
     state #  25: atom   1 (Fe ), wfc  5 (l=2 m= 4 s_z=-0.5)
     state #  26: atom   1 (Fe ), wfc  5 (l=2 m= 5 s_z=-0.5)
     state #  27: atom   2 (Fe ), wfc  1 (l=0 m= 1 s_z= 0.5)
     state #  28: atom   2 (Fe ), wfc  1 (l=0 m= 1 s_z=-0.5)
     state #  29: atom   2 (Fe ), wfc  2 (l=0 m= 1 s_z= 0.5)
     state #  30: atom   2 (Fe ), wfc  2 (l=0 m= 1 s_z=-0.5)
     state #  31: atom   2 (Fe ), wfc  3 (l=1 m= 1 s_z= 0.5)
     state #  32: atom   2 (Fe ), wfc  3 (l=1 m= 2 s_z= 0.5)
     state #  33: atom   2 (Fe ), wfc  3 (l=1 m= 3 s_z= 0.5)
     state #  34: atom   2 (Fe ), wfc  3 (l=1 m= 1 s_z=-0.5)
     state #  35: atom   2 (Fe ), wfc  3 (l=1 m= 2 s_z=-0.5)
     state #  36: atom   2 (Fe ), wfc  3 (l=1 m= 3 s_z=-0.5)
     state #  37: atom   2 (Fe ), wfc  4 (l=1 m= 1 s_z= 0.5)
     state #  38: atom   2 (Fe ), wfc  4 (l=1 m= 2 s_z= 0.5)
     state #  39: atom   2 (Fe ), wfc  4 (l=1 m= 3 s_z= 0.5)
     state #  40: atom   2 (Fe ), wfc  4 (l=1 m= 1 s_z=-0.5)
     state #  41: atom   2 (Fe ), wfc  4 (l=1 m= 2 s_z=-0.5)
     state #  42: atom   2 (Fe ), wfc  4 (l=1 m= 3 s_z=-0.5)
     state #  43: atom   2 (Fe ), wfc  5 (l=2 m= 1 s_z= 0.5)
     state #  44: atom   2 (Fe ), wfc  5 (l=2 m= 2 s_z= 0.5)
     state #  45: atom   2 (Fe ), wfc  5 (l=2 m= 3 s_z= 0.5)
     state #  46: atom   2 (Fe ), wfc  5 (l=2 m= 4 s_z= 0.5)
     state #  47: atom   2 (Fe ), wfc  5 (l=2 m= 5 s_z= 0.5)
     state #  48: atom   2 (Fe ), wfc  5 (l=2 m= 1 s_z=-0.5)
     state #  49: atom   2 (Fe ), wfc  5 (l=2 m= 2 s_z=-0.5)
     state #  50: atom   2 (Fe ), wfc  5 (l=2 m= 3 s_z=-0.5)
     state #  51: atom   2 (Fe ), wfc  5 (l=2 m= 4 s_z=-0.5)
     state #  52: atom   2 (Fe ), wfc  5 (l=2 m= 5 s_z=-0.5)

 k =   0.0000000000  0.0000000000  0.0000000000
==== e(   1) =   -68.36512 eV ==== 
     psi = 0.226*[#   1]+0.226*[#   2]+0.225*[#  27]+0.225*[#  28]+0.025*[#   3]
          +0.025*[#   4]+0.025*[#  29]+0.025*[#  30]
    |psi|^2 = 1.000
==== e(   2) =   -68.21967 eV ==== 
     psi = 0.234*[#  27]+0.234*[#  28]+0.233*[#   1]+0.233*[#   2]+0.017*[#   3]
          +0.017*[#   4]+0.016*[#  29]+0.016*[#  30]
    |psi|^2 = 1.000
==== e(   3) =   -64.93267 eV ==== 
     psi = 0.225*[#   1]+0.225*[#   2]+0.224*[#  27]+0.224*[#  28]+0.025*[#   3]
          +0.025*[#   4]+0.025*[#  29]+0.025*[#  30]
    |psi|^2 = 1.000
==== e(   4) =   -64.77210 eV ==== 
     psi = 0.234*[#  27]+0.234*[#  28]+0.234*[#   1]+0.234*[#   2]+0.016*[#   3]
          +0.016*[#   4]+0.016*[#  29]+0.016*[#  30]
    |psi|^2 = 1.000
==== e(   5) =   -34.55293 eV ==== 
     psi = 0.246*[#   5]+0.246*[#   8]+0.246*[#  31]+0.246*[#  34]+0.004*[#   7]
          +0.004*[#  10]+0.004*[#  33]+0.004*[#  36]
    |psi|^2 = 1.000
==== e(   6) =   -34.55293 eV ==== 
     psi = 0.246*[#   7]+0.246*[#  10]+0.246*[#  33]+0.246*[#  36]+0.004*[#   5]
          +0.004*[#   8]+0.004*[#  31]+0.004*[#  34]
    |psi|^2 = 1.000
==== e(   7) =   -34.55281 eV ==== 
     psi = 0.250*[#   6]+0.250*[#   9]+0.250*[#  32]+0.250*[#  35]
    |psi|^2 = 1.000
==== e(   8) =   -34.23548 eV ==== 
     psi = 0.240*[#  31]+0.240*[#  34]+0.239*[#   5]+0.239*[#   8]+0.005*[#  11]
          +0.005*[#  14]+0.005*[#  37]+0.005*[#  40]+0.005*[#   7]+0.005*[#  10]
          +0.005*[#  33]+0.005*[#  36]
    |psi|^2 = 1.000
==== e(   9) =   -34.23548 eV ==== 
     psi = 0.240*[#  33]+0.240*[#  36]+0.239*[#   7]+0.239*[#  10]+0.005*[#  13]
          +0.005*[#  16]+0.005*[#  39]+0.005*[#  42]+0.005*[#   5]+0.005*[#   8]
          +0.005*[#  31]+0.005*[#  34]
    |psi|^2 = 1.000
==== e(  10) =   -34.23535 eV ==== 
     psi = 0.245*[#  32]+0.245*[#  35]+0.244*[#   6]+0.244*[#   9]+0.005*[#  12]
          +0.005*[#  15]+0.005*[#  38]+0.005*[#  41]
    |psi|^2 = 1.000
==== e(  11) =   -31.21981 eV ==== 
     psi = 0.250*[#   5]+0.250*[#   8]+0.250*[#  31]+0.250*[#  34]
    |psi|^2 = 1.000
==== e(  12) =   -31.21981 eV ==== 
     psi = 0.250*[#   7]+0.250*[#  10]+0.250*[#  33]+0.250*[#  36]
    |psi|^2 = 1.000
==== e(  13) =   -31.21974 eV ==== 
     psi = 0.250*[#   6]+0.250*[#   9]+0.250*[#  32]+0.250*[#  35]
    |psi|^2 = 1.000
==== e(  14) =   -30.86630 eV ==== 
     psi = 0.245*[#  31]+0.245*[#  34]+0.245*[#   5]+0.245*[#   8]+0.005*[#  11]
          +0.005*[#  14]+0.005*[#  37]+0.005*[#  40]
    |psi|^2 = 1.000
==== e(  15) =   -30.86630 eV ==== 
     psi = 0.245*[#  33]+0.245*[#  36]+0.245*[#   7]+0.245*[#  10]+0.005*[#  13]
          +0.005*[#  16]+0.005*[#  39]+0.005*[#  42]
    |psi|^2 = 1.000
==== e(  16) =   -30.86623 eV ==== 
     psi = 0.245*[#  32]+0.245*[#  35]+0.245*[#   6]+0.245*[#   9]+0.005*[#  12]
          +0.005*[#  15]+0.005*[#  38]+0.005*[#  41]
    |psi|^2 = 1.000
==== e(  17) =     9.68385 eV ==== 
     psi = 0.225*[#   3]+0.225*[#   4]+0.225*[#  29]+0.225*[#  30]+0.025*[#   1]
          +0.025*[#   2]+0.025*[#  27]+0.025*[#  28]
    |psi|^2 = 0.998
==== e(  18) =    10.15863 eV ==== 
     psi = 0.224*[#   3]+0.224*[#   4]+0.224*[#  29]+0.224*[#  30]+0.025*[#   1]
          +0.025*[#   2]+0.025*[#  27]+0.025*[#  28]
    |psi|^2 = 0.999
==== e(  19) =    14.21741 eV ==== 
     psi = 0.185*[#  17]+0.185*[#  22]+0.185*[#  43]+0.185*[#  48]+0.061*[#  20]
          +0.061*[#  25]+0.061*[#  46]+0.061*[#  51]
    |psi|^2 = 0.985
==== e(  20) =    14.21748 eV ==== 
     psi = 0.185*[#  20]+0.185*[#  25]+0.185*[#  46]+0.185*[#  51]+0.061*[#  17]
          +0.061*[#  22]+0.061*[#  43]+0.061*[#  48]
    |psi|^2 = 0.985
==== e(  21) =    16.03329 eV ==== 
     psi = 0.180*[#  17]+0.180*[#  22]+0.180*[#  43]+0.180*[#  48]+0.060*[#  20]
          +0.060*[#  25]+0.060*[#  46]+0.060*[#  51]
    |psi|^2 = 0.960
==== e(  22) =    16.03334 eV ==== 
     psi = 0.180*[#  20]+0.180*[#  25]+0.180*[#  46]+0.180*[#  51]+0.060*[#  17]
          +0.060*[#  22]+0.060*[#  43]+0.060*[#  48]
    |psi|^2 = 0.960
==== e(  23) =    16.82739 eV ==== 
     psi = 0.250*[#  19]+0.250*[#  24]+0.250*[#  45]+0.250*[#  50]
    |psi|^2 = 0.998
==== e(  24) =    16.82748 eV ==== 
     psi = 0.250*[#  21]+0.250*[#  26]+0.250*[#  47]+0.250*[#  52]
    |psi|^2 = 0.998
==== e(  25) =    16.82748 eV ==== 
     psi = 0.250*[#  18]+0.250*[#  23]+0.250*[#  44]+0.250*[#  49]
    |psi|^2 = 0.998
==== e(  26) =    18.55333 eV ==== 
     psi = 0.188*[#  17]+0.188*[#  22]+0.188*[#  43]+0.188*[#  48]+0.062*[#  20]
          +0.062*[#  25]+0.062*[#  46]+0.062*[#  51]
    |psi|^2 = 0.999
==== e(  27) =    18.55340 eV ==== 
     psi = 0.188*[#  20]+0.188*[#  25]+0.188*[#  46]+0.188*[#  51]+0.062*[#  17]
          +0.062*[#  22]+0.062*[#  43]+0.062*[#  48]
    |psi|^2 = 0.999
==== e(  28) =    19.43982 eV ==== 
     psi = 0.250*[#  19]+0.250*[#  24]+0.250*[#  45]+0.250*[#  50]
    |psi|^2 = 1.000
==== e(  29) =    19.43993 eV ==== 
     psi = 0.250*[#  21]+0.250*[#  26]+0.250*[#  47]+0.250*[#  52]
    |psi|^2 = 1.000
==== e(  30) =    19.43993 eV ==== 
     psi = 0.250*[#  18]+0.250*[#  23]+0.250*[#  44]+0.250*[#  49]
    |psi|^2 = 1.000
==== e(  31) =    19.74085 eV ==== 
     psi = 0.248*[#  18]+0.248*[#  23]+0.248*[#  44]+0.248*[#  49]
    |psi|^2 = 0.994
==== e(  32) =    19.74085 eV ==== 
     psi = 0.248*[#  21]+0.248*[#  26]+0.248*[#  47]+0.248*[#  52]
    |psi|^2 = 0.994
==== e(  33) =    19.74085 eV ==== 
     psi = 0.248*[#  19]+0.248*[#  24]+0.248*[#  45]+0.248*[#  50]
    |psi|^2 = 0.994
==== e(  34) =    21.37843 eV ==== 
     psi = 0.186*[#  17]+0.186*[#  22]+0.186*[#  43]+0.186*[#  48]+0.062*[#  20]
          +0.062*[#  25]+0.062*[#  46]+0.062*[#  51]
    |psi|^2 = 0.996
==== e(  35) =    21.37852 eV ==== 
     psi = 0.186*[#  20]+0.186*[#  25]+0.186*[#  46]+0.186*[#  51]+0.062*[#  17]
          +0.062*[#  22]+0.062*[#  43]+0.062*[#  48]
    |psi|^2 = 0.996
==== e(  36) =    22.77693 eV ==== 
     psi = 0.250*[#  18]+0.250*[#  23]+0.250*[#  44]+0.250*[#  49]
    |psi|^2 = 1.000
==== e(  37) =    22.77693 eV ==== 
     psi = 0.250*[#  21]+0.250*[#  26]+0.250*[#  47]+0.250*[#  52]
    |psi|^2 = 1.000
==== e(  38) =    22.77693 eV ==== 
     psi = 0.250*[#  19]+0.250*[#  24]+0.250*[#  45]+0.250*[#  50]
    |psi|^2 = 1.000
==== e(  39) =    28.18857 eV ==== 
     psi = 0.233*[#  12]+0.233*[#  15]+0.233*[#  38]+0.233*[#  41]+0.014*[#  11]
          +0.014*[#  14]+0.014*[#  37]+0.014*[#  40]+0.001*[#  13]+0.001*[#  16]
          +0.001*[#  39]+0.001*[#  42]
    |psi|^2 = 0.994
==== e(  40) =    28.18858 eV ==== 
     psi = 0.225*[#  13]+0.225*[#  16]+0.225*[#  39]+0.225*[#  42]+0.023*[#  11]
          +0.023*[#  14]+0.023*[#  37]+0.023*[#  40]
    |psi|^2 = 0.994

 k =  -0.5000000000  0.0000000000  0.0000000000
==== e(   1) =   -68.28706 eV ==== 
     psi = 0.430*[#   1]+0.430*[#   2]+0.061*[#  38]+0.061*[#  41]+0.009*[#   3]
          +0.009*[#   4]
    |psi|^2 = 1.000
==== e(   2) =   -68.28673 eV ==== 
     psi = 0.430*[#  27]+0.430*[#  28]+0.061*[#  12]+0.061*[#  15]+0.009*[#  29]
          +0.009*[#  30]
    |psi|^2 = 1.000
==== e(   3) =   -64.84624 eV ==== 
     psi = 0.430*[#   1]+0.430*[#   2]+0.061*[#  38]+0.061*[#  41]+0.009*[#   3]
          +0.009*[#   4]
    |psi|^2 = 1.000
==== e(   4) =   -64.84593 eV ==== 
     psi = 0.430*[#  27]+0.430*[#  28]+0.061*[#  12]+0.061*[#  15]+0.009*[#  29]
          +0.009*[#  30]
    |psi|^2 = 1.000
==== e(   5) =   -34.46613 eV ==== 
     psi = 0.483*[#   6]+0.483*[#   9]+0.009*[#  29]+0.009*[#  30]+0.008*[#  12]
          +0.008*[#  15]
    |psi|^2 = 1.000
==== e(   6) =   -34.46582 eV ==== 
     psi = 0.483*[#  32]+0.483*[#  35]+0.009*[#   3]+0.009*[#   4]+0.008*[#  38]
          +0.008*[#  41]
    |psi|^2 = 1.000
==== e(   7) =   -34.38972 eV ==== 
     psi = 0.484*[#   5]+0.484*[#   8]+0.009*[#   7]+0.009*[#  10]+0.006*[#  11]
          +0.006*[#  14]+0.001*[#  44]+0.001*[#  49]
    |psi|^2 = 1.000
==== e(   8) =   -34.38972 eV ==== 
     psi = 0.484*[#   7]+0.484*[#  10]+0.009*[#   5]+0.009*[#   8]+0.006*[#  13]
          +0.006*[#  16]+0.001*[#  47]+0.001*[#  52]
    |psi|^2 = 1.000
==== e(   9) =   -34.38940 eV ==== 
     psi = 0.484*[#  31]+0.484*[#  34]+0.009*[#  33]+0.009*[#  36]+0.006*[#  37]
          +0.006*[#  40]+0.001*[#  18]+0.001*[#  23]
    |psi|^2 = 1.000
==== e(  10) =   -34.38940 eV ==== 
     psi = 0.484*[#  33]+0.484*[#  36]+0.009*[#  31]+0.009*[#  34]+0.006*[#  39]
          +0.006*[#  42]+0.001*[#  21]+0.001*[#  26]
    |psi|^2 = 1.000
==== e(  11) =   -31.12889 eV ==== 
     psi = 0.481*[#   6]+0.481*[#   9]+0.009*[#  29]+0.009*[#  30]+0.009*[#  12]
          +0.009*[#  15]
    |psi|^2 = 1.000
==== e(  12) =   -31.12860 eV ==== 
     psi = 0.481*[#  32]+0.481*[#  35]+0.009*[#   3]+0.009*[#   4]+0.009*[#  38]
          +0.009*[#  41]
    |psi|^2 = 1.000
==== e(  13) =   -31.03762 eV ==== 
     psi = 0.494*[#   5]+0.494*[#   8]+0.005*[#  11]+0.005*[#  14]+0.001*[#  44]
          +0.001*[#  49]
    |psi|^2 = 1.000
==== e(  14) =   -31.03762 eV ==== 
     psi = 0.494*[#   7]+0.494*[#  10]+0.005*[#  13]+0.005*[#  16]+0.001*[#  47]
          +0.001*[#  52]
    |psi|^2 = 1.000
==== e(  15) =   -31.03733 eV ==== 
     psi = 0.494*[#  31]+0.494*[#  34]+0.005*[#  37]+0.005*[#  40]+0.001*[#  18]
          +0.001*[#  23]
    |psi|^2 = 1.000
==== e(  16) =   -31.03733 eV ==== 
     psi = 0.494*[#  33]+0.494*[#  36]+0.005*[#  39]+0.005*[#  42]+0.001*[#  21]
          +0.001*[#  26]
    |psi|^2 = 1.000
==== e(  17) =    13.75503 eV ==== 
     psi = 0.256*[#  38]+0.256*[#  41]+0.093*[#   3]+0.093*[#   4]+0.085*[#  20]
          +0.085*[#  25]+0.028*[#  17]+0.028*[#  22]+0.022*[#   1]+0.022*[#   2]
          +0.014*[#  32]+0.014*[#  35]
    |psi|^2 = 0.996
==== e(  18) =    13.75508 eV ==== 
     psi = 0.256*[#  12]+0.256*[#  15]+0.093*[#  29]+0.093*[#  30]+0.085*[#  46]
          +0.085*[#  51]+0.028*[#  43]+0.028*[#  48]+0.022*[#  27]+0.022*[#  28]
          +0.014*[#   6]+0.014*[#   9]
    |psi|^2 = 0.996
==== e(  19) =    14.48456 eV ==== 
     psi = 0.285*[#  38]+0.285*[#  41]+0.100*[#   3]+0.100*[#   4]+0.054*[#  20]
          +0.054*[#  25]+0.026*[#   1]+0.026*[#   2]+0.018*[#  17]+0.018*[#  22]
          +0.016*[#  32]+0.016*[#  35]
    |psi|^2 = 0.996
==== e(  20) =    14.48460 eV ==== 
     psi = 0.285*[#  12]+0.285*[#  15]+0.100*[#  29]+0.100*[#  30]+0.054*[#  46]
          +0.054*[#  51]+0.026*[#  27]+0.026*[#  28]+0.018*[#  43]+0.018*[#  48]
          +0.016*[#   6]+0.016*[#   9]
    |psi|^2 = 0.996
==== e(  21) =    16.32024 eV ==== 
     psi = 0.371*[#  17]+0.371*[#  22]+0.124*[#  20]+0.124*[#  25]
    |psi|^2 = 0.988
==== e(  22) =    16.32047 eV ==== 
     psi = 0.371*[#  43]+0.371*[#  48]+0.124*[#  46]+0.124*[#  51]
    |psi|^2 = 0.988
==== e(  23) =    17.25216 eV ==== 
     psi = 0.488*[#  21]+0.488*[#  26]+0.010*[#  39]+0.010*[#  42]
    |psi|^2 = 0.997
==== e(  24) =    17.25216 eV ==== 
     psi = 0.488*[#  18]+0.488*[#  23]+0.010*[#  37]+0.010*[#  40]
    |psi|^2 = 0.997
==== e(  25) =    17.25241 eV ==== 
     psi = 0.488*[#  47]+0.488*[#  52]+0.010*[#  13]+0.010*[#  16]
    |psi|^2 = 0.997
==== e(  26) =    17.25241 eV ==== 
     psi = 0.488*[#  44]+0.488*[#  49]+0.010*[#  11]+0.010*[#  14]
    |psi|^2 = 0.997
==== e(  27) =    18.09986 eV ==== 
     psi = 0.499*[#  19]+0.499*[#  24]
    |psi|^2 = 0.999
==== e(  28) =    18.10013 eV ==== 
     psi = 0.499*[#  45]+0.499*[#  50]
    |psi|^2 = 0.999
==== e(  29) =    18.54377 eV ==== 
     psi = 0.362*[#  17]+0.362*[#  22]+0.121*[#  20]+0.121*[#  25]
    |psi|^2 = 0.966
==== e(  30) =    18.54396 eV ==== 
     psi = 0.362*[#  43]+0.362*[#  48]+0.121*[#  46]+0.121*[#  51]
    |psi|^2 = 0.966
==== e(  31) =    19.62195 eV ==== 
     psi = 0.290*[#  20]+0.290*[#  25]+0.097*[#  17]+0.097*[#  22]+0.073*[#  38]
          +0.073*[#  41]+0.033*[#   3]+0.033*[#   4]+0.004*[#   1]+0.004*[#   2]
          +0.002*[#  32]+0.002*[#  35]
    |psi|^2 = 0.999
==== e(  32) =    19.62219 eV ==== 
     psi = 0.290*[#  46]+0.290*[#  51]+0.097*[#  43]+0.097*[#  48]+0.073*[#  12]
          +0.073*[#  15]+0.033*[#  29]+0.033*[#  30]+0.004*[#  27]+0.004*[#  28]
          +0.002*[#   6]+0.002*[#   9]
    |psi|^2 = 0.999
==== e(  33) =    20.03226 eV ==== 
     psi = 0.477*[#  18]+0.477*[#  23]+0.017*[#  37]+0.017*[#  40]
    |psi|^2 = 0.989
==== e(  34) =    20.03226 eV ==== 
     psi = 0.477*[#  21]+0.477*[#  26]+0.017*[#  39]+0.017*[#  42]
    |psi|^2 = 0.989
==== e(  35) =    20.03246 eV ==== 
     psi = 0.477*[#  44]+0.477*[#  49]+0.017*[#  11]+0.017*[#  14]
    |psi|^2 = 0.989
==== e(  36) =    20.03246 eV ==== 
     psi = 0.477*[#  47]+0.477*[#  52]+0.017*[#  13]+0.017*[#  16]
    |psi|^2 = 0.989
==== e(  37) =    21.20655 eV ==== 
     psi = 0.498*[#  19]+0.498*[#  24]
    |psi|^2 = 0.996
==== e(  38) =    21.20679 eV ==== 
     psi = 0.498*[#  45]+0.498*[#  50]
    |psi|^2 = 0.996
==== e(  39) =    22.25634 eV ==== 
     psi = 0.320*[#  20]+0.320*[#  25]+0.107*[#  17]+0.107*[#  22]+0.045*[#  38]
          +0.045*[#  41]+0.024*[#   3]+0.024*[#   4]+0.003*[#   1]+0.003*[#   2]
          +0.001*[#  32]+0.001*[#  35]
    |psi|^2 = 0.998
==== e(  40) =    22.25657 eV ==== 
     psi = 0.320*[#  46]+0.320*[#  51]+0.107*[#  43]+0.107*[#  48]+0.045*[#  12]
          +0.045*[#  15]+0.024*[#  29]+0.024*[#  30]+0.003*[#  27]+0.003*[#  28]
          +0.001*[#   6]+0.001*[#   9]
    |psi|^2 = 0.998

Lowdin Charges: 

     Atom #   1: total charge =  15.9361, s =  2.6752, p =  6.7641, d =  6.4968, 
                 spin up      =   7.9680, s =  1.3376, 
                 spin up      =   7.9680, p =  3.3820, 
                 spin up      =   7.9680, d =  3.2484, 
                 spin down    =   7.9680, s =  1.3376, 
                 spin down    =   7.9680, p =  3.3820, 
                 spin down    =   7.9680, d =  3.2484, 
                 polarization =   0.0000, s =  0.0000, p = -0.0000, d =  0.0000, 
     Atom #   2: total charge =  15.9360, s =  2.6752, p =  6.7641, d =  6.4967, 
                 spin up      =   7.9680, s =  1.3376, 
                 spin up      =   7.9680, p =  3.3820, 
                 spin up      =   7.9680, d =  3.2483, 
                 spin down    =   7.9680, s =  1.3376, 
                 spin down    =   7.9680, p =  3.3820, 
                 spin down    =   7.9680, d =  3.2483, 
                 polarization =  -0.0000, s = -0.0000, p = -0.0000, d =  0.0000, 
     Spilling Parameter:   0.0040

     PROJWFC      :      2.73s CPU      2.88s WALL


   This run was terminated on:  13:49:13   3Oct2021            

=------------------------------------------------------------------------------=
   JOB DONE.
=------------------------------------------------------------------------------=
