
     Program PROJWFC v.6.5 starts on 17Aug2020 at  8:21: 0 

     This program is part of the open-source Quantum ESPRESSO suite
     for quantum simulation of materials; please cite
         "P. Giannozzi et al., J. Phys.:Condens. Matter 21 395502 (2009);
         "P. Giannozzi et al., J. Phys.:Condens. Matter 29 465901 (2017);
          URL http://www.quantum-espresso.org", 
     in publications or presentations arising from this work. More details at
     http://www.quantum-espresso.org/quote

     Parallel version (MPI), running on     1 processors

     MPI processes distributed on     1 nodes

     Reading xml data from directory:

     ./out/aiida.save/

     IMPORTANT: XC functional enforced from input :
     Exchange-correlation= PZ
                           (   1   1   0   0   0   0   0)
     Any further DFT definition will be discarded
     Please, verify this is what you really want

               file Fe.pz-nd-rrkjus.UPF: wavefunction(s)  4S renormalized
 
     G-vector sticks info
     --------------------
     sticks:   dense  smooth     PW     G-vecs:    dense   smooth      PW
     Sum         307     155     55                 3367     1205     249
 

     Check: negative core charge=   -0.000013

     Gaussian broadening (read from input): ngauss,degauss=   0    0.020000


     Calling projwave .... 
 
  Problem Sizes 
  natomwfc =            12
  nbnd     =            16
  nkstot   =            22
  npwx     =           156
  nkb      =            18
 

     Atomic states used for projection
     (read from pseudopotential files):

     state #   1: atom   1 (Fe ), wfc  1 (l=0 m= 1 s_z= 0.5)
     state #   2: atom   1 (Fe ), wfc  1 (l=0 m= 1 s_z=-0.5)
     state #   3: atom   1 (Fe ), wfc  2 (l=2 m= 1 s_z= 0.5)
     state #   4: atom   1 (Fe ), wfc  2 (l=2 m= 2 s_z= 0.5)
     state #   5: atom   1 (Fe ), wfc  2 (l=2 m= 3 s_z= 0.5)
     state #   6: atom   1 (Fe ), wfc  2 (l=2 m= 4 s_z= 0.5)
     state #   7: atom   1 (Fe ), wfc  2 (l=2 m= 5 s_z= 0.5)
     state #   8: atom   1 (Fe ), wfc  2 (l=2 m= 1 s_z=-0.5)
     state #   9: atom   1 (Fe ), wfc  2 (l=2 m= 2 s_z=-0.5)
     state #  10: atom   1 (Fe ), wfc  2 (l=2 m= 3 s_z=-0.5)
     state #  11: atom   1 (Fe ), wfc  2 (l=2 m= 4 s_z=-0.5)
     state #  12: atom   1 (Fe ), wfc  2 (l=2 m= 5 s_z=-0.5)

 k =   0.0625000000  0.0625000000  0.0625000000
==== e(   1) =     5.69762 eV ==== 
     psi = 0.499*[#   1]+0.499*[#   2]
    |psi|^2 = 0.998
==== e(   2) =     6.47096 eV ==== 
     psi = 0.498*[#   1]+0.498*[#   2]
    |psi|^2 = 0.997
==== e(   3) =    11.67737 eV ==== 
     psi = 0.333*[#   5]+0.333*[#  10]+0.083*[#   4]+0.083*[#   7]+0.083*[#   9]
          +0.083*[#  12]
    |psi|^2 = 1.000
==== e(   4) =    11.67740 eV ==== 
     psi = 0.250*[#   4]+0.250*[#   7]+0.250*[#   9]+0.250*[#  12]
    |psi|^2 = 1.000
==== e(   5) =    11.90417 eV ==== 
     psi = 0.166*[#   4]+0.166*[#   5]+0.166*[#   7]+0.166*[#   9]+0.166*[#  10]
          +0.166*[#  12]
    |psi|^2 = 1.000
==== e(   6) =    13.46808 eV ==== 
     psi = 0.374*[#   3]+0.374*[#   8]+0.125*[#   6]+0.125*[#  11]
    |psi|^2 = 1.000
==== e(   7) =    13.46812 eV ==== 
     psi = 0.374*[#   6]+0.374*[#  11]+0.125*[#   3]+0.125*[#   8]
    |psi|^2 = 1.000
==== e(   8) =    14.66408 eV ==== 
     psi = 0.332*[#   5]+0.332*[#  10]+0.083*[#   4]+0.083*[#   7]+0.083*[#   9]
          +0.083*[#  12]
    |psi|^2 = 0.999
==== e(   9) =    14.66410 eV ==== 
     psi = 0.249*[#   4]+0.249*[#   7]+0.249*[#   9]+0.249*[#  12]
    |psi|^2 = 0.999
==== e(  10) =    14.92562 eV ==== 
     psi = 0.166*[#   4]+0.166*[#   5]+0.166*[#   7]+0.166*[#   9]+0.166*[#  10]
          +0.166*[#  12]
    |psi|^2 = 1.000
==== e(  11) =    16.52803 eV ==== 
     psi = 0.374*[#   3]+0.374*[#   8]+0.125*[#   6]+0.125*[#  11]
    |psi|^2 = 0.999
==== e(  12) =    16.52808 eV ==== 
     psi = 0.374*[#   6]+0.374*[#  11]+0.125*[#   3]+0.125*[#   8]
    |psi|^2 = 0.999
==== e(  13) =    38.74571 eV ==== 
 
    |psi|^2 = 0.000
==== e(  14) =    38.74572 eV ==== 
 
    |psi|^2 = 0.000
==== e(  15) =    39.45349 eV ==== 
 
    |psi|^2 = 0.001
==== e(  16) =    39.45350 eV ==== 
 
    |psi|^2 = 0.001

 k =   0.0625000000  0.0625000000  0.1875000000
==== e(   1) =     6.36251 eV ==== 
     psi = 0.493*[#   1]+0.493*[#   2]+0.002*[#   3]+0.002*[#   8]+0.002*[#   5]
          +0.002*[#  10]+0.001*[#   6]+0.001*[#  11]
    |psi|^2 = 0.998
==== e(   2) =     7.14474 eV ==== 
     psi = 0.494*[#   1]+0.494*[#   2]+0.001*[#   3]+0.001*[#   8]+0.001*[#   5]
          +0.001*[#  10]
    |psi|^2 = 0.997
==== e(   3) =    11.58089 eV ==== 
     psi = 0.176*[#   4]+0.176*[#   7]+0.176*[#   9]+0.176*[#  12]+0.146*[#   5]
          +0.146*[#  10]+0.001*[#   1]+0.001*[#   2]
    |psi|^2 = 1.000
==== e(   4) =    11.65891 eV ==== 
     psi = 0.245*[#   5]+0.245*[#  10]+0.123*[#   4]+0.123*[#   7]+0.123*[#   9]
          +0.123*[#  12]+0.006*[#   6]+0.006*[#  11]+0.004*[#   3]+0.004*[#   8]
          
    |psi|^2 = 1.000
==== e(   5) =    12.20280 eV ==== 
     psi = 0.198*[#   4]+0.198*[#   7]+0.198*[#   9]+0.198*[#  12]+0.102*[#   5]
          +0.102*[#  10]+0.002*[#   1]+0.002*[#   2]
    |psi|^2 = 1.000
==== e(   6) =    13.17269 eV ==== 
     psi = 0.306*[#   6]+0.306*[#  11]+0.184*[#   3]+0.184*[#   8]+0.005*[#   5]
          +0.005*[#  10]+0.002*[#   4]+0.002*[#   7]+0.002*[#   9]+0.002*[#  12]
          
    |psi|^2 = 0.999
==== e(   7) =    13.60705 eV ==== 
     psi = 0.310*[#   3]+0.310*[#   8]+0.186*[#   6]+0.186*[#  11]+0.003*[#   1]
          +0.003*[#   2]
    |psi|^2 = 0.999
==== e(   8) =    14.52999 eV ==== 
     psi = 0.173*[#   4]+0.173*[#   7]+0.173*[#   9]+0.173*[#  12]+0.151*[#   5]
          +0.151*[#  10]+0.001*[#   3]+0.001*[#   8]+0.001*[#   1]+0.001*[#   2]
          
    |psi|^2 = 0.999
==== e(   9) =    14.60216 eV ==== 
     psi = 0.242*[#   5]+0.242*[#  10]+0.121*[#   4]+0.121*[#   7]+0.121*[#   9]
          +0.121*[#  12]+0.009*[#   6]+0.009*[#  11]+0.005*[#   3]+0.005*[#   8]
          
    |psi|^2 = 0.999
==== e(  10) =    15.25217 eV ==== 
     psi = 0.201*[#   4]+0.201*[#   7]+0.201*[#   9]+0.201*[#  12]+0.097*[#   5]
          +0.097*[#  10]+0.001*[#   1]+0.001*[#   2]
    |psi|^2 = 0.999
==== e(  11) =    16.16266 eV ==== 
     psi = 0.303*[#   6]+0.303*[#  11]+0.182*[#   3]+0.182*[#   8]+0.007*[#   5]
          +0.007*[#  10]+0.004*[#   4]+0.004*[#   7]+0.004*[#   9]+0.004*[#  12]
          
    |psi|^2 = 0.998
==== e(  12) =    16.70045 eV ==== 
     psi = 0.310*[#   3]+0.310*[#   8]+0.186*[#   6]+0.186*[#  11]+0.002*[#   1]
          +0.002*[#   2]
    |psi|^2 = 0.999
==== e(  13) =    36.25868 eV ==== 
 
    |psi|^2 = 0.000
==== e(  14) =    37.20235 eV ==== 
 
    |psi|^2 = 0.003
==== e(  15) =    37.84451 eV ==== 
 
    |psi|^2 = 0.000
==== e(  16) =    38.78089 eV ==== 
 
    |psi|^2 = 0.001

 k =   0.0625000000  0.0625000000  0.3125000000
==== e(   1) =     7.56151 eV ==== 
     psi = 0.458*[#   1]+0.458*[#   2]+0.019*[#   3]+0.019*[#   8]+0.011*[#   6]
          +0.011*[#  11]+0.005*[#   5]+0.005*[#  10]+0.003*[#   4]+0.003*[#   7]
          +0.003*[#   9]+0.003*[#  12]
    |psi|^2 = 0.998
==== e(   2) =     8.38772 eV ==== 
     psi = 0.470*[#   1]+0.470*[#   2]+0.014*[#   3]+0.014*[#   8]+0.008*[#   6]
          +0.008*[#  11]+0.003*[#   5]+0.003*[#  10]+0.002*[#   4]+0.002*[#   7]
          +0.002*[#   9]+0.002*[#  12]
    |psi|^2 = 0.997
==== e(   3) =    11.61637 eV ==== 
     psi = 0.167*[#   5]+0.167*[#  10]+0.163*[#   4]+0.163*[#   7]+0.163*[#   9]
          +0.163*[#  12]+0.007*[#   1]+0.007*[#   2]
    |psi|^2 = 1.000
==== e(   4) =    11.64869 eV ==== 
     psi = 0.221*[#   5]+0.221*[#  10]+0.110*[#   4]+0.110*[#   7]+0.110*[#   9]
          +0.110*[#  12]+0.036*[#   6]+0.036*[#  11]+0.022*[#   3]+0.022*[#   8]
          
    |psi|^2 = 1.000
==== e(   5) =    12.62116 eV ==== 
     psi = 0.209*[#   4]+0.209*[#   7]+0.209*[#   9]+0.209*[#  12]+0.077*[#   5]
          +0.077*[#  10]+0.004*[#   1]+0.004*[#   2]
    |psi|^2 = 1.000
==== e(   6) =    12.66384 eV ==== 
     psi = 0.276*[#   6]+0.276*[#  11]+0.166*[#   3]+0.166*[#   8]+0.029*[#   5]
          +0.029*[#  10]+0.015*[#   4]+0.015*[#   7]+0.015*[#   9]+0.015*[#  12]
          
    |psi|^2 = 0.999
==== e(   7) =    13.86594 eV ==== 
     psi = 0.293*[#   3]+0.293*[#   8]+0.176*[#   6]+0.176*[#  11]+0.030*[#   1]
          +0.030*[#   2]
    |psi|^2 = 0.999
==== e(   8) =    14.49631 eV ==== 
     psi = 0.204*[#   5]+0.204*[#  10]+0.102*[#   4]+0.102*[#   7]+0.102*[#   9]
          +0.102*[#  12]+0.056*[#   6]+0.056*[#  11]+0.034*[#   3]+0.034*[#   8]
          
    |psi|^2 = 0.997
==== e(   9) =    14.51920 eV ==== 
     psi = 0.176*[#   5]+0.176*[#  10]+0.159*[#   4]+0.159*[#   7]+0.159*[#   9]
          +0.159*[#  12]+0.005*[#   1]+0.005*[#   2]
    |psi|^2 = 0.998
==== e(  10) =    15.56131 eV ==== 
     psi = 0.255*[#   6]+0.255*[#  11]+0.153*[#   3]+0.153*[#   8]+0.045*[#   5]
          +0.045*[#  10]+0.023*[#   4]+0.023*[#   7]+0.023*[#   9]+0.023*[#  12]
          
    |psi|^2 = 0.997
==== e(  11) =    15.71353 eV ==== 
     psi = 0.214*[#   4]+0.214*[#   7]+0.214*[#   9]+0.214*[#  12]+0.070*[#   5]
          +0.070*[#  10]+0.003*[#   1]+0.003*[#   2]
    |psi|^2 = 0.999
==== e(  12) =    16.97359 eV ==== 
     psi = 0.298*[#   3]+0.298*[#   8]+0.179*[#   6]+0.179*[#  11]+0.021*[#   1]
          +0.021*[#   2]
    |psi|^2 = 1.000
==== e(  13) =    33.86615 eV ==== 
 
    |psi|^2 = 0.000
==== e(  14) =    35.04958 eV ==== 
     psi = 0.001*[#   6]+0.001*[#  11]
    |psi|^2 = 0.005
==== e(  15) =    35.47914 eV ==== 
 
    |psi|^2 = 0.000
==== e(  16) =    36.64262 eV ==== 
 
    |psi|^2 = 0.003

 k =   0.0625000000  0.0625000000  0.4375000000
==== e(   1) =     8.93946 eV ==== 
     psi = 0.334*[#   1]+0.334*[#   2]+0.087*[#   3]+0.087*[#   8]+0.052*[#   6]
          +0.052*[#  11]+0.013*[#   5]+0.013*[#  10]+0.007*[#   4]+0.007*[#   7]
          +0.007*[#   9]+0.007*[#  12]
    |psi|^2 = 0.998
==== e(   2) =     9.94204 eV ==== 
     psi = 0.384*[#   1]+0.384*[#   2]+0.063*[#   3]+0.063*[#   8]+0.038*[#   6]
          +0.038*[#  11]+0.007*[#   5]+0.007*[#  10]+0.004*[#   4]+0.004*[#   7]
          +0.004*[#   9]+0.004*[#  12]
    |psi|^2 = 0.997
==== e(   3) =    11.45707 eV ==== 
     psi = 0.200*[#   6]+0.200*[#  11]+0.120*[#   3]+0.120*[#   8]+0.090*[#   5]
          +0.090*[#  10]+0.045*[#   4]+0.045*[#   7]+0.045*[#   9]+0.045*[#  12]
          
    |psi|^2 = 1.000
==== e(   4) =    11.83612 eV ==== 
     psi = 0.173*[#   5]+0.173*[#  10]+0.154*[#   4]+0.154*[#   7]+0.154*[#   9]
          +0.154*[#  12]+0.012*[#   1]+0.012*[#   2]+0.005*[#   3]+0.005*[#   8]
          +0.003*[#   6]+0.003*[#  11]
    |psi|^2 = 1.000
==== e(   5) =    12.31014 eV ==== 
     psi = 0.160*[#   5]+0.160*[#  10]+0.113*[#   6]+0.113*[#  11]+0.080*[#   4]
          +0.080*[#   7]+0.080*[#   9]+0.080*[#  12]+0.068*[#   3]+0.068*[#   8]
          
    |psi|^2 = 1.000
==== e(   6) =    13.11640 eV ==== 
     psi = 0.213*[#   4]+0.213*[#   7]+0.213*[#   9]+0.213*[#  12]+0.063*[#   5]
          +0.063*[#  10]+0.005*[#   3]+0.005*[#   8]+0.003*[#   6]+0.003*[#  11]
          +0.002*[#   1]+0.002*[#   2]
    |psi|^2 = 1.000
==== e(   7) =    14.08298 eV ==== 
     psi = 0.223*[#   6]+0.223*[#  11]+0.134*[#   3]+0.134*[#   8]+0.070*[#   5]
          +0.070*[#  10]+0.035*[#   4]+0.035*[#   7]+0.035*[#   9]+0.035*[#  12]
          
    |psi|^2 = 0.993
==== e(   8) =    14.40852 eV ==== 
     psi = 0.216*[#   3]+0.216*[#   8]+0.151*[#   1]+0.151*[#   2]+0.129*[#   6]
          +0.129*[#  11]+0.001*[#   4]+0.001*[#   7]+0.001*[#   9]+0.001*[#  12]
          
    |psi|^2 = 0.998
==== e(   9) =    14.70541 eV ==== 
     psi = 0.185*[#   5]+0.185*[#  10]+0.151*[#   4]+0.151*[#   7]+0.151*[#   9]
          +0.151*[#  12]+0.008*[#   1]+0.008*[#   2]+0.001*[#   3]+0.001*[#   8]
          
    |psi|^2 = 0.996
==== e(  10) =    15.22770 eV ==== 
     psi = 0.179*[#   5]+0.179*[#  10]+0.089*[#   4]+0.089*[#   7]+0.089*[#   9]
          +0.089*[#  12]+0.088*[#   6]+0.088*[#  11]+0.053*[#   3]+0.053*[#   8]
          
    |psi|^2 = 0.997
==== e(  11) =    16.27309 eV ==== 
     psi = 0.219*[#   4]+0.219*[#   7]+0.219*[#   9]+0.219*[#  12]+0.056*[#   5]
          +0.056*[#  10]+0.003*[#   3]+0.003*[#   8]+0.002*[#   6]+0.002*[#  11]
          +0.001*[#   1]+0.001*[#   2]
    |psi|^2 = 0.999
==== e(  12) =    17.35678 eV ==== 
     psi = 0.245*[#   3]+0.245*[#   8]+0.147*[#   6]+0.147*[#  11]+0.105*[#   1]
          +0.105*[#   2]
    |psi|^2 = 0.999
==== e(  13) =    31.74044 eV ==== 
 
    |psi|^2 = 0.000
==== e(  14) =    32.71471 eV ==== 
 
    |psi|^2 = 0.002
==== e(  15) =    33.15420 eV ==== 
     psi = 0.001*[#   6]+0.001*[#  11]
    |psi|^2 = 0.006
==== e(  16) =    34.00161 eV ==== 
     psi = 0.001*[#   1]+0.001*[#   2]
    |psi|^2 = 0.006

 k =   0.0625000000  0.0625000000  0.5625000000
==== e(   1) =     9.84901 eV ==== 
     psi = 0.207*[#   3]+0.207*[#   8]+0.139*[#   1]+0.139*[#   2]+0.124*[#   6]
          +0.124*[#  11]+0.014*[#   5]+0.014*[#  10]+0.007*[#   4]+0.007*[#   7]
          +0.007*[#   9]+0.007*[#  12]
    |psi|^2 = 0.998
==== e(   2) =    10.80639 eV ==== 
     psi = 0.291*[#   6]+0.291*[#  11]+0.175*[#   3]+0.175*[#   8]+0.017*[#   5]
          +0.017*[#  10]+0.009*[#   4]+0.009*[#   7]+0.009*[#   9]+0.009*[#  12]
          
    |psi|^2 = 1.000
==== e(   3) =    11.28977 eV ==== 
     psi = 0.215*[#   1]+0.215*[#   2]+0.166*[#   3]+0.166*[#   8]+0.099*[#   6]
          +0.099*[#  11]+0.009*[#   5]+0.009*[#  10]+0.004*[#   4]+0.004*[#   7]
          +0.004*[#   9]+0.004*[#  12]
    |psi|^2 = 0.995
==== e(   4) =    12.19345 eV ==== 
     psi = 0.179*[#   5]+0.179*[#  10]+0.148*[#   4]+0.148*[#   7]+0.148*[#   9]
          +0.148*[#  12]+0.015*[#   3]+0.015*[#   8]+0.009*[#   6]+0.009*[#  11]
          +0.001*[#   1]+0.001*[#   2]
    |psi|^2 = 0.999
==== e(   5) =    12.57534 eV ==== 
     psi = 0.233*[#   5]+0.233*[#  10]+0.116*[#   4]+0.116*[#   7]+0.116*[#   9]
          +0.116*[#  12]+0.021*[#   6]+0.021*[#  11]+0.013*[#   3]+0.013*[#   8]
          
    |psi|^2 = 0.999
==== e(   6) =    13.24454 eV ==== 
     psi = 0.290*[#   6]+0.290*[#  11]+0.174*[#   3]+0.174*[#   8]+0.016*[#   5]
          +0.016*[#  10]+0.008*[#   4]+0.008*[#   7]+0.008*[#   9]+0.008*[#  12]
          
    |psi|^2 = 0.993
==== e(   7) =    13.61268 eV ==== 
     psi = 0.218*[#   4]+0.218*[#   7]+0.218*[#   9]+0.218*[#  12]+0.054*[#   5]
          +0.054*[#  10]+0.006*[#   3]+0.006*[#   8]+0.004*[#   6]+0.004*[#  11]
          
    |psi|^2 = 0.999
==== e(   8) =    15.08777 eV ==== 
     psi = 0.189*[#   5]+0.189*[#  10]+0.146*[#   4]+0.146*[#   7]+0.146*[#   9]
          +0.146*[#  12]+0.010*[#   3]+0.010*[#   8]+0.006*[#   6]+0.006*[#  11]
          +0.001*[#   1]+0.001*[#   2]
    |psi|^2 = 0.993
==== e(   9) =    15.52683 eV ==== 
     psi = 0.232*[#   5]+0.232*[#  10]+0.116*[#   4]+0.116*[#   7]+0.116*[#   9]
          +0.116*[#  12]+0.020*[#   6]+0.020*[#  11]+0.012*[#   3]+0.012*[#   8]
          
    |psi|^2 = 0.994
==== e(  10) =    15.81630 eV ==== 
     psi = 0.354*[#   1]+0.354*[#   2]+0.084*[#   3]+0.084*[#   8]+0.050*[#   6]
          +0.050*[#  11]+0.003*[#   5]+0.003*[#  10]+0.002*[#   4]+0.002*[#   7]
          +0.002*[#   9]+0.002*[#  12]
    |psi|^2 = 0.991
==== e(  11) =    16.84125 eV ==== 
     psi = 0.220*[#   4]+0.220*[#   7]+0.220*[#   9]+0.220*[#  12]+0.046*[#   5]
          +0.046*[#  10]+0.008*[#   3]+0.008*[#   8]+0.005*[#   6]+0.005*[#  11]
          +0.001*[#   1]+0.001*[#   2]
    |psi|^2 = 0.999
==== e(  12) =    18.23925 eV ==== 
     psi = 0.277*[#   1]+0.277*[#   2]+0.129*[#   3]+0.129*[#   8]+0.078*[#   6]
          +0.078*[#  11]+0.004*[#   4]+0.004*[#   5]+0.004*[#   7]+0.004*[#   9]
          +0.004*[#  10]+0.004*[#  12]
    |psi|^2 = 0.993
==== e(  13) =    29.62807 eV ==== 
 
    |psi|^2 = 0.000
==== e(  14) =    30.10115 eV ==== 
     psi = 0.003*[#   1]+0.003*[#   2]
    |psi|^2 = 0.007
==== e(  15) =    31.14885 eV ==== 
     psi = 0.001*[#   5]+0.001*[#  10]
    |psi|^2 = 0.008
==== e(  16) =    31.46307 eV ==== 
     psi = 0.004*[#   1]+0.004*[#   2]+0.002*[#   5]+0.002*[#  10]
    |psi|^2 = 0.014

 k =   0.0625000000  0.0625000000  0.6875000000
==== e(   1) =     9.92962 eV ==== 
     psi = 0.288*[#   3]+0.288*[#   8]+0.173*[#   6]+0.173*[#  11]+0.030*[#   1]
          +0.030*[#   2]+0.004*[#   5]+0.004*[#  10]+0.002*[#   4]+0.002*[#   7]
          +0.002*[#   9]+0.002*[#  12]
    |psi|^2 = 0.998
==== e(   2) =    10.10608 eV ==== 
     psi = 0.307*[#   6]+0.307*[#  11]+0.184*[#   3]+0.184*[#   8]+0.005*[#   5]
          +0.005*[#  10]+0.002*[#   4]+0.002*[#   7]+0.002*[#   9]+0.002*[#  12]
          
    |psi|^2 = 1.000
==== e(   3) =    11.83343 eV ==== 
     psi = 0.265*[#   3]+0.265*[#   8]+0.159*[#   6]+0.159*[#  11]+0.065*[#   1]
          +0.065*[#   2]+0.004*[#   5]+0.004*[#  10]+0.002*[#   4]+0.002*[#   7]
          +0.002*[#   9]+0.002*[#  12]
    |psi|^2 = 0.992
==== e(   4) =    12.40947 eV ==== 
     psi = 0.304*[#   6]+0.304*[#  11]+0.183*[#   3]+0.183*[#   8]+0.005*[#   5]
          +0.005*[#  10]+0.002*[#   4]+0.002*[#   7]+0.002*[#   9]+0.002*[#  12]
          
    |psi|^2 = 0.993
==== e(   5) =    12.72268 eV ==== 
     psi = 0.188*[#   5]+0.188*[#  10]+0.151*[#   4]+0.151*[#   7]+0.151*[#   9]
          +0.151*[#  12]+0.005*[#   3]+0.005*[#   8]+0.003*[#   6]+0.003*[#  11]
          
    |psi|^2 = 0.999
==== e(   6) =    13.17395 eV ==== 
     psi = 0.245*[#   5]+0.245*[#  10]+0.122*[#   4]+0.122*[#   7]+0.122*[#   9]
          +0.122*[#  12]+0.006*[#   6]+0.006*[#  11]+0.004*[#   3]+0.004*[#   8]
          
    |psi|^2 = 0.998
==== e(   7) =    14.06651 eV ==== 
     psi = 0.220*[#   4]+0.220*[#   7]+0.220*[#   9]+0.220*[#  12]+0.055*[#   5]
          +0.055*[#  10]+0.002*[#   3]+0.002*[#   8]+0.001*[#   6]+0.001*[#  11]
          +0.001*[#   1]+0.001*[#   2]
    |psi|^2 = 0.999
==== e(   8) =    15.67548 eV ==== 
     psi = 0.192*[#   5]+0.192*[#  10]+0.146*[#   4]+0.146*[#   7]+0.146*[#   9]
          +0.146*[#  12]+0.006*[#   3]+0.006*[#   8]+0.003*[#   6]+0.003*[#  11]
          +0.003*[#   1]+0.003*[#   2]
    |psi|^2 = 0.991
==== e(   9) =    16.20099 eV ==== 
     psi = 0.242*[#   5]+0.242*[#  10]+0.121*[#   4]+0.121*[#   7]+0.121*[#   9]
          +0.121*[#  12]+0.006*[#   6]+0.006*[#  11]+0.004*[#   3]+0.004*[#   8]
          
    |psi|^2 = 0.990
==== e(  10) =    17.36120 eV ==== 
     psi = 0.222*[#   4]+0.222*[#   7]+0.222*[#   9]+0.222*[#  12]+0.047*[#   5]
          +0.047*[#  10]+0.003*[#   1]+0.003*[#   2]+0.003*[#   3]+0.003*[#   8]
          +0.002*[#   6]+0.002*[#  11]
    |psi|^2 = 0.999
==== e(  11) =    18.33622 eV ==== 
     psi = 0.440*[#   1]+0.440*[#   2]+0.018*[#   3]+0.018*[#   8]+0.011*[#   6]
          +0.011*[#  11]+0.002*[#   5]+0.002*[#  10]+0.001*[#   4]+0.001*[#   7]
          +0.001*[#   9]+0.001*[#  12]
    |psi|^2 = 0.945
==== e(  12) =    20.15338 eV ==== 
     psi = 0.403*[#   1]+0.403*[#   2]+0.039*[#   3]+0.039*[#   8]+0.023*[#   6]
          +0.023*[#  11]+0.005*[#   5]+0.005*[#  10]+0.003*[#   4]+0.003*[#   7]
          +0.003*[#   9]+0.003*[#  12]
    |psi|^2 = 0.950
==== e(  13) =    27.46330 eV ==== 
 
    |psi|^2 = 0.001
==== e(  14) =    27.74652 eV ==== 
     psi = 0.018*[#   1]+0.018*[#   2]
    |psi|^2 = 0.038
==== e(  15) =    28.91396 eV ==== 
     psi = 0.003*[#   5]+0.003*[#  10]+0.001*[#   4]+0.001*[#   7]+0.001*[#   9]
          +0.001*[#  12]
    |psi|^2 = 0.012
==== e(  16) =    29.07941 eV ==== 
     psi = 0.018*[#   1]+0.018*[#   2]+0.003*[#   5]+0.003*[#  10]+0.002*[#   4]
          +0.002*[#   7]+0.002*[#   9]+0.002*[#  12]
    |psi|^2 = 0.048

 k =   0.0625000000  0.0625000000  0.8125000000
==== e(   1) =     9.56547 eV ==== 
     psi = 0.310*[#   6]+0.310*[#  11]+0.187*[#   3]+0.187*[#   8]+0.001*[#   5]
          +0.001*[#  10]
    |psi|^2 = 1.000
==== e(   2) =     9.57286 eV ==== 
     psi = 0.309*[#   3]+0.309*[#   8]+0.186*[#   6]+0.186*[#  11]+0.003*[#   1]
          +0.003*[#   2]
    |psi|^2 = 0.999
==== e(   3) =    11.68588 eV ==== 
     psi = 0.303*[#   3]+0.303*[#   8]+0.182*[#   6]+0.182*[#  11]+0.009*[#   1]
          +0.009*[#   2]
    |psi|^2 = 0.992
==== e(   4) =    11.77766 eV ==== 
     psi = 0.309*[#   6]+0.309*[#  11]+0.185*[#   3]+0.185*[#   8]+0.001*[#   5]
          +0.001*[#  10]
    |psi|^2 = 0.994
==== e(   5) =    13.43049 eV ==== 
     psi = 0.180*[#   5]+0.180*[#  10]+0.158*[#   4]+0.158*[#   7]+0.158*[#   9]
          +0.158*[#  12]+0.002*[#   1]+0.002*[#   2]
    |psi|^2 = 0.998
==== e(   6) =    13.88659 eV ==== 
     psi = 0.248*[#   5]+0.248*[#  10]+0.124*[#   4]+0.124*[#   7]+0.124*[#   9]
          +0.124*[#  12]+0.002*[#   6]+0.002*[#  11]
    |psi|^2 = 0.997
==== e(   7) =    14.37605 eV ==== 
     psi = 0.215*[#   4]+0.215*[#   7]+0.215*[#   9]+0.215*[#  12]+0.068*[#   5]
          +0.068*[#  10]
    |psi|^2 = 0.999
==== e(   8) =    16.50721 eV ==== 
     psi = 0.183*[#   5]+0.183*[#  10]+0.153*[#   4]+0.153*[#   7]+0.153*[#   9]
          +0.153*[#  12]+0.006*[#   1]+0.006*[#   2]
    |psi|^2 = 0.993
==== e(   9) =    17.06461 eV ==== 
     psi = 0.245*[#   5]+0.245*[#  10]+0.123*[#   4]+0.123*[#   7]+0.123*[#   9]
          +0.123*[#  12]+0.002*[#   6]+0.002*[#  11]+0.001*[#   3]+0.001*[#   8]
          
    |psi|^2 = 0.988
==== e(  10) =    17.72574 eV ==== 
     psi = 0.218*[#   4]+0.218*[#   7]+0.218*[#   9]+0.218*[#  12]+0.061*[#   5]
          +0.061*[#  10]+0.002*[#   1]+0.002*[#   2]
    |psi|^2 = 1.000
==== e(  11) =    21.51194 eV ==== 
     psi = 0.359*[#   1]+0.359*[#   2]+0.002*[#   3]+0.002*[#   8]+0.001*[#   6]
          +0.001*[#  11]
    |psi|^2 = 0.728
==== e(  12) =    22.91677 eV ==== 
     psi = 0.352*[#   1]+0.352*[#   2]+0.007*[#   3]+0.007*[#   8]+0.004*[#   6]
          +0.004*[#  11]+0.002*[#   5]+0.002*[#  10]+0.001*[#   4]+0.001*[#   7]
          +0.001*[#   9]+0.001*[#  12]
    |psi|^2 = 0.734
==== e(  13) =    25.57068 eV ==== 
 
    |psi|^2 = 0.002
==== e(  14) =    25.84207 eV ==== 
     psi = 0.090*[#   1]+0.090*[#   2]
    |psi|^2 = 0.184
==== e(  15) =    26.84473 eV ==== 
     psi = 0.003*[#   5]+0.003*[#  10]+0.001*[#   4]+0.001*[#   7]+0.001*[#   9]
          +0.001*[#  12]
    |psi|^2 = 0.013
==== e(  16) =    27.04593 eV ==== 
     psi = 0.090*[#   1]+0.090*[#   2]+0.003*[#   5]+0.003*[#  10]+0.002*[#   4]
          +0.002*[#   7]+0.002*[#   9]+0.002*[#  12]
    |psi|^2 = 0.194

 k =   0.0625000000  0.0625000000  0.9375000000
==== e(   1) =     9.27496 eV ==== 
     psi = 0.375*[#   3]+0.375*[#   8]+0.125*[#   6]+0.125*[#  11]
    |psi|^2 = 1.000
==== e(   2) =     9.27500 eV ==== 
     psi = 0.375*[#   6]+0.375*[#  11]+0.125*[#   3]+0.125*[#   8]
    |psi|^2 = 1.000
==== e(   3) =    11.44154 eV ==== 
     psi = 0.373*[#   3]+0.373*[#   8]+0.124*[#   6]+0.124*[#  11]
    |psi|^2 = 0.995
==== e(   4) =    11.44157 eV ==== 
     psi = 0.373*[#   6]+0.373*[#  11]+0.124*[#   3]+0.124*[#   8]
    |psi|^2 = 0.995
==== e(   5) =    14.07473 eV ==== 
     psi = 0.166*[#   4]+0.166*[#   5]+0.166*[#   7]+0.166*[#   9]+0.166*[#  10]
          +0.166*[#  12]
    |psi|^2 = 0.999
==== e(   6) =    14.41542 eV ==== 
     psi = 0.333*[#   5]+0.333*[#  10]+0.083*[#   4]+0.083*[#   7]+0.083*[#   9]
          +0.083*[#  12]
    |psi|^2 = 0.999
==== e(   7) =    14.41545 eV ==== 
     psi = 0.250*[#   4]+0.250*[#   7]+0.250*[#   9]+0.250*[#  12]
    |psi|^2 = 0.999
==== e(   8) =    17.32232 eV ==== 
     psi = 0.165*[#   4]+0.165*[#   5]+0.165*[#   7]+0.165*[#   9]+0.165*[#  10]
          +0.165*[#  12]+0.004*[#   1]+0.004*[#   2]
    |psi|^2 = 0.997
==== e(   9) =    17.76652 eV ==== 
     psi = 0.332*[#   5]+0.332*[#  10]+0.083*[#   4]+0.083*[#   7]+0.083*[#   9]
          +0.083*[#  12]
    |psi|^2 = 0.997
==== e(  10) =    17.76654 eV ==== 
     psi = 0.249*[#   4]+0.249*[#   7]+0.249*[#   9]+0.249*[#  12]
    |psi|^2 = 0.997
==== e(  11) =    24.41570 eV ==== 
 
    |psi|^2 = 0.001
==== e(  12) =    24.41571 eV ==== 
 
    |psi|^2 = 0.001
==== e(  13) =    24.80013 eV ==== 
     psi = 0.340*[#   1]+0.340*[#   2]
    |psi|^2 = 0.682
==== e(  14) =    25.50017 eV ==== 
 
    |psi|^2 = 0.005
==== e(  15) =    25.50017 eV ==== 
     psi = 0.001*[#   5]+0.001*[#  10]
    |psi|^2 = 0.005
==== e(  16) =    25.85376 eV ==== 
     psi = 0.336*[#   1]+0.336*[#   2]+0.002*[#   4]+0.002*[#   5]+0.002*[#   7]
          +0.002*[#   9]+0.002*[#  10]+0.002*[#  12]
    |psi|^2 = 0.684

 k =   0.0625000000  0.1875000000  0.1875000000
==== e(   1) =     6.97446 eV ==== 
     psi = 0.477*[#   1]+0.477*[#   2]+0.016*[#   5]+0.016*[#  10]+0.003*[#   6]
          +0.003*[#  11]+0.001*[#   4]+0.001*[#   7]+0.001*[#   9]+0.001*[#  12]
          
    |psi|^2 = 0.998
==== e(   2) =     7.77995 eV ==== 
     psi = 0.484*[#   1]+0.484*[#   2]+0.010*[#   5]+0.010*[#  10]+0.002*[#   6]
          +0.002*[#  11]
    |psi|^2 = 0.997
==== e(   3) =    11.31810 eV ==== 
     psi = 0.248*[#   4]+0.248*[#   7]+0.248*[#   9]+0.248*[#  12]+0.002*[#   3]
          +0.002*[#   8]
    |psi|^2 = 1.000
==== e(   4) =    11.56707 eV ==== 
     psi = 0.396*[#   5]+0.396*[#  10]+0.028*[#   6]+0.028*[#  11]+0.027*[#   4]
          +0.027*[#   7]+0.027*[#   9]+0.027*[#  12]+0.013*[#   1]+0.013*[#   2]
          +0.009*[#   3]+0.009*[#   8]
    |psi|^2 = 1.000
==== e(   5) =    12.67784 eV ==== 
     psi = 0.221*[#   4]+0.221*[#   7]+0.221*[#   9]+0.221*[#  12]+0.048*[#   5]
          +0.048*[#  10]+0.008*[#   1]+0.008*[#   2]
    |psi|^2 = 1.000
==== e(   6) =    13.25387 eV ==== 
     psi = 0.344*[#   6]+0.344*[#  11]+0.115*[#   3]+0.115*[#   8]+0.039*[#   5]
          +0.039*[#  10]
    |psi|^2 = 0.999
==== e(   7) =    13.53009 eV ==== 
     psi = 0.373*[#   3]+0.373*[#   8]+0.124*[#   6]+0.124*[#  11]+0.002*[#   4]
          +0.002*[#   7]+0.002*[#   9]+0.002*[#  12]
    |psi|^2 = 0.999
==== e(   8) =    14.21810 eV ==== 
     psi = 0.248*[#   4]+0.248*[#   7]+0.248*[#   9]+0.248*[#  12]+0.003*[#   3]
          +0.003*[#   8]+0.001*[#   6]+0.001*[#  11]
    |psi|^2 = 0.999
==== e(   9) =    14.40489 eV ==== 
     psi = 0.393*[#   5]+0.393*[#  10]+0.039*[#   6]+0.039*[#  11]+0.022*[#   4]
          +0.022*[#   7]+0.022*[#   9]+0.022*[#  12]+0.013*[#   3]+0.013*[#   8]
          +0.009*[#   1]+0.009*[#   2]
    |psi|^2 = 0.997
==== e(  10) =    15.77045 eV ==== 
     psi = 0.226*[#   4]+0.226*[#   7]+0.226*[#   9]+0.226*[#  12]+0.040*[#   5]
          +0.040*[#  10]+0.005*[#   1]+0.005*[#   2]+0.001*[#   6]+0.001*[#  11]
          
    |psi|^2 = 0.999
==== e(  11) =    16.29026 eV ==== 
     psi = 0.332*[#   6]+0.332*[#  11]+0.111*[#   3]+0.111*[#   8]+0.055*[#   5]
          +0.055*[#  10]
    |psi|^2 = 0.999
==== e(  12) =    16.61042 eV ==== 
     psi = 0.372*[#   3]+0.372*[#   8]+0.124*[#   6]+0.124*[#  11]+0.002*[#   4]
          +0.002*[#   7]+0.002*[#   9]+0.002*[#  12]
    |psi|^2 = 0.999
==== e(  13) =    33.96470 eV ==== 
 
    |psi|^2 = 0.000
==== e(  14) =    35.14994 eV ==== 
 
    |psi|^2 = 0.004
==== e(  15) =    36.72725 eV ==== 
 
    |psi|^2 = 0.000
==== e(  16) =    37.60110 eV ==== 
 
    |psi|^2 = 0.002

 k =   0.0625000000  0.1875000000  0.3125000000
==== e(   1) =     8.02377 eV ==== 
     psi = 0.408*[#   1]+0.408*[#   2]+0.057*[#   5]+0.057*[#  10]+0.017*[#   6]
          +0.017*[#  11]+0.012*[#   3]+0.012*[#   8]+0.002*[#   4]+0.002*[#   7]
          +0.002*[#   9]+0.002*[#  12]
    |psi|^2 = 0.998
==== e(   2) =     8.92764 eV ==== 
     psi = 0.442*[#   1]+0.442*[#   2]+0.033*[#   5]+0.033*[#  10]+0.011*[#   6]
          +0.011*[#  11]+0.009*[#   3]+0.009*[#   8]+0.002*[#   4]+0.002*[#   7]
          +0.002*[#   9]+0.002*[#  12]
    |psi|^2 = 0.997
==== e(   3) =    11.17442 eV ==== 
     psi = 0.246*[#   4]+0.246*[#   7]+0.246*[#   9]+0.246*[#  12]+0.004*[#   6]
          +0.004*[#  11]+0.003*[#   3]+0.003*[#   8]
    |psi|^2 = 1.000
==== e(   4) =    11.54951 eV ==== 
     psi = 0.308*[#   5]+0.308*[#  10]+0.061*[#   6]+0.061*[#  11]+0.053*[#   1]
          +0.053*[#   2]+0.032*[#   3]+0.032*[#   8]+0.023*[#   4]+0.023*[#   7]
          +0.023*[#   9]+0.023*[#  12]
    |psi|^2 = 0.999
==== e(   5) =    13.02803 eV ==== 
     psi = 0.253*[#   6]+0.253*[#  11]+0.135*[#   3]+0.135*[#   8]+0.078*[#   5]
          +0.078*[#  10]+0.017*[#   4]+0.017*[#   7]+0.017*[#   9]+0.017*[#  12]
          
    |psi|^2 = 0.999
==== e(   6) =    13.23724 eV ==== 
     psi = 0.209*[#   4]+0.209*[#   7]+0.209*[#   9]+0.209*[#  12]+0.056*[#   5]
          +0.056*[#  10]+0.014*[#   1]+0.014*[#   2]+0.008*[#   6]+0.008*[#  11]
          +0.004*[#   3]+0.004*[#   8]
    |psi|^2 = 0.999
==== e(   7) =    13.75019 eV ==== 
     psi = 0.314*[#   3]+0.314*[#   8]+0.157*[#   6]+0.157*[#  11]+0.023*[#   1]
          +0.023*[#   2]+0.003*[#   4]+0.003*[#   7]+0.003*[#   9]+0.003*[#  12]
          
    |psi|^2 = 0.999
==== e(   8) =    14.01920 eV ==== 
     psi = 0.237*[#   4]+0.237*[#   7]+0.237*[#   9]+0.237*[#  12]+0.010*[#   6]
          +0.010*[#  11]+0.008*[#   3]+0.008*[#   5]+0.008*[#   8]+0.008*[#  10]
          
    |psi|^2 = 0.998
==== e(   9) =    14.19118 eV ==== 
     psi = 0.308*[#   5]+0.308*[#  10]+0.076*[#   6]+0.076*[#  11]+0.033*[#   1]
          +0.033*[#   2]+0.033*[#   3]+0.033*[#   8]+0.024*[#   4]+0.024*[#   7]
          +0.024*[#   9]+0.024*[#  12]
    |psi|^2 = 0.993
==== e(  10) =    16.04531 eV ==== 
     psi = 0.237*[#   6]+0.237*[#  11]+0.131*[#   3]+0.131*[#   8]+0.104*[#   5]
          +0.104*[#  10]+0.013*[#   4]+0.013*[#   7]+0.013*[#   9]+0.013*[#  12]
          
    |psi|^2 = 0.998
==== e(  11) =    16.38377 eV ==== 
     psi = 0.221*[#   4]+0.221*[#   7]+0.221*[#   9]+0.221*[#  12]+0.043*[#   5]
          +0.043*[#  10]+0.009*[#   1]+0.009*[#   2]+0.003*[#   6]+0.003*[#  11]
          +0.001*[#   3]+0.001*[#   8]
    |psi|^2 = 0.998
==== e(  12) =    16.84896 eV ==== 
     psi = 0.318*[#   3]+0.318*[#   8]+0.162*[#   6]+0.162*[#  11]+0.013*[#   1]
          +0.013*[#   2]+0.003*[#   5]+0.003*[#  10]+0.002*[#   4]+0.002*[#   7]
          +0.002*[#   9]+0.002*[#  12]
    |psi|^2 = 0.999
==== e(  13) =    31.17714 eV ==== 
 
    |psi|^2 = 0.001
==== e(  14) =    32.55658 eV ==== 
     psi = 0.002*[#   5]+0.002*[#  10]
    |psi|^2 = 0.008
==== e(  15) =    34.91362 eV ==== 
 
    |psi|^2 = 0.000
==== e(  16) =    35.90582 eV ==== 
 
    |psi|^2 = 0.002

 k =   0.0625000000  0.1875000000  0.4375000000
==== e(   1) =     9.10406 eV ==== 
     psi = 0.242*[#   1]+0.242*[#   2]+0.127*[#   5]+0.127*[#  10]+0.068*[#   6]
          +0.068*[#  11]+0.053*[#   3]+0.053*[#   8]+0.004*[#   4]+0.004*[#   7]
          +0.004*[#   9]+0.004*[#  12]
    |psi|^2 = 0.997
==== e(   2) =    10.30609 eV ==== 
     psi = 0.330*[#   1]+0.330*[#   2]+0.071*[#   5]+0.071*[#  10]+0.046*[#   6]
          +0.046*[#  11]+0.045*[#   3]+0.045*[#   8]+0.003*[#   4]+0.003*[#   7]
          +0.003*[#   9]+0.003*[#  12]
    |psi|^2 = 0.996
==== e(   3) =    11.18740 eV ==== 
     psi = 0.197*[#   4]+0.197*[#   7]+0.197*[#   9]+0.197*[#  12]+0.048*[#   6]
          +0.048*[#  11]+0.036*[#   3]+0.036*[#   8]+0.019*[#   5]+0.019*[#  10]
          +0.003*[#   1]+0.003*[#   2]
    |psi|^2 = 1.000
==== e(   4) =    11.54259 eV ==== 
     psi = 0.113*[#   3]+0.113*[#   8]+0.107*[#   5]+0.107*[#  10]+0.087*[#   6]
          +0.087*[#  11]+0.070*[#   1]+0.070*[#   2]+0.061*[#   4]+0.061*[#   7]
          +0.061*[#   9]+0.061*[#  12]
    |psi|^2 = 0.997
==== e(   5) =    12.85222 eV ==== 
     psi = 0.211*[#   5]+0.211*[#  10]+0.177*[#   6]+0.177*[#  11]+0.068*[#   3]
          +0.068*[#   8]+0.018*[#   4]+0.018*[#   7]+0.018*[#   9]+0.018*[#  12]
          +0.007*[#   1]+0.007*[#   2]
    |psi|^2 = 0.999
==== e(   6) =    13.69850 eV ==== 
     psi = 0.198*[#   4]+0.198*[#   7]+0.198*[#   9]+0.198*[#  12]+0.051*[#   3]
          +0.051*[#   8]+0.029*[#   6]+0.029*[#  11]+0.024*[#   5]+0.024*[#  10]
          
    |psi|^2 = 0.999
==== e(   7) =    13.79352 eV ==== 
     psi = 0.137*[#   6]+0.137*[#  11]+0.118*[#   5]+0.118*[#  10]+0.103*[#   3]
          +0.103*[#   8]+0.055*[#   4]+0.055*[#   7]+0.055*[#   9]+0.055*[#  12]
          +0.025*[#   1]+0.025*[#   2]
    |psi|^2 = 0.989
==== e(   8) =    14.14344 eV ==== 
     psi = 0.197*[#   4]+0.197*[#   7]+0.197*[#   9]+0.197*[#  12]+0.054*[#   5]
          +0.054*[#  10]+0.022*[#   1]+0.022*[#   2]+0.015*[#   3]+0.015*[#   8]
          +0.013*[#   6]+0.013*[#  11]
    |psi|^2 = 0.994
==== e(   9) =    14.46489 eV ==== 
     psi = 0.178*[#   3]+0.178*[#   8]+0.174*[#   1]+0.174*[#   2]+0.091*[#   6]
          +0.091*[#  11]+0.022*[#   4]+0.022*[#   7]+0.022*[#   9]+0.022*[#  12]
          +0.010*[#   5]+0.010*[#  10]
    |psi|^2 = 0.994
==== e(  10) =    15.83653 eV ==== 
     psi = 0.226*[#   5]+0.226*[#  10]+0.163*[#   6]+0.163*[#  11]+0.071*[#   3]
          +0.071*[#   8]+0.016*[#   4]+0.016*[#   7]+0.016*[#   9]+0.016*[#  12]
          +0.007*[#   1]+0.007*[#   2]
    |psi|^2 = 0.997
==== e(  11) =    16.92226 eV ==== 
     psi = 0.189*[#   4]+0.189*[#   7]+0.189*[#   9]+0.189*[#  12]+0.064*[#   3]
          +0.064*[#   8]+0.036*[#   6]+0.036*[#  11]+0.021*[#   5]+0.021*[#  10]
          
    |psi|^2 = 0.999
==== e(  12) =    17.36363 eV ==== 
     psi = 0.201*[#   3]+0.201*[#   8]+0.108*[#   1]+0.108*[#   2]+0.103*[#   6]
          +0.103*[#  11]+0.039*[#   4]+0.039*[#   7]+0.039*[#   9]+0.039*[#  12]
          +0.006*[#   5]+0.006*[#  10]
    |psi|^2 = 0.995
==== e(  13) =    28.62656 eV ==== 
     psi = 0.004*[#   1]+0.004*[#   2]
    |psi|^2 = 0.008
==== e(  14) =    30.16200 eV ==== 
     psi = 0.005*[#   1]+0.005*[#   2]+0.003*[#   5]+0.003*[#  10]+0.001*[#   6]
          +0.001*[#  11]
    |psi|^2 = 0.020
==== e(  15) =    32.60511 eV ==== 
 
    |psi|^2 = 0.002
==== e(  16) =    33.80296 eV ==== 
 
    |psi|^2 = 0.005

 k =   0.1875000000  0.0625000000  0.0625000000
==== e(   1) =     6.36251 eV ==== 
     psi = 0.493*[#   1]+0.493*[#   2]+0.002*[#   6]+0.002*[#  11]+0.002*[#   4]
          +0.002*[#   7]+0.002*[#   9]+0.002*[#  12]
    |psi|^2 = 0.998
==== e(   2) =     7.14474 eV ==== 
     psi = 0.494*[#   1]+0.494*[#   2]+0.002*[#   6]+0.002*[#  11]+0.001*[#   4]
          +0.001*[#   7]+0.001*[#   9]+0.001*[#  12]
    |psi|^2 = 0.997
==== e(   3) =    11.58088 eV ==== 
     psi = 0.206*[#   5]+0.206*[#  10]+0.146*[#   4]+0.146*[#   7]+0.146*[#   9]
          +0.146*[#  12]+0.001*[#   1]+0.001*[#   2]
    |psi|^2 = 1.000
==== e(   4) =    11.65893 eV ==== 
     psi = 0.245*[#   4]+0.245*[#   7]+0.245*[#   9]+0.245*[#  12]+0.007*[#   3]
          +0.007*[#   8]+0.002*[#   6]+0.002*[#  11]
    |psi|^2 = 1.000
==== e(   5) =    12.20279 eV ==== 
     psi = 0.293*[#   5]+0.293*[#  10]+0.102*[#   4]+0.102*[#   7]+0.102*[#   9]
          +0.102*[#  12]+0.002*[#   1]+0.002*[#   2]
    |psi|^2 = 1.000
==== e(   6) =    13.17265 eV ==== 
     psi = 0.368*[#   3]+0.368*[#   8]+0.123*[#   6]+0.123*[#  11]+0.005*[#   4]
          +0.005*[#   7]+0.005*[#   9]+0.005*[#  12]
    |psi|^2 = 0.999
==== e(   7) =    13.60709 eV ==== 
     psi = 0.372*[#   6]+0.372*[#  11]+0.124*[#   3]+0.124*[#   8]+0.003*[#   1]
          +0.003*[#   2]
    |psi|^2 = 0.999
==== e(   8) =    14.52999 eV ==== 
     psi = 0.195*[#   5]+0.195*[#  10]+0.151*[#   4]+0.151*[#   7]+0.151*[#   9]
          +0.151*[#  12]+0.001*[#   6]+0.001*[#  11]+0.001*[#   1]+0.001*[#   2]
          
    |psi|^2 = 0.999
==== e(   9) =    14.60217 eV ==== 
     psi = 0.242*[#   4]+0.242*[#   7]+0.242*[#   9]+0.242*[#  12]+0.011*[#   3]
          +0.011*[#   8]+0.004*[#   6]+0.004*[#  11]
    |psi|^2 = 0.999
==== e(  10) =    15.25216 eV ==== 
     psi = 0.304*[#   5]+0.304*[#  10]+0.097*[#   4]+0.097*[#   7]+0.097*[#   9]
          +0.097*[#  12]+0.001*[#   1]+0.001*[#   2]
    |psi|^2 = 0.999
==== e(  11) =    16.16263 eV ==== 
     psi = 0.363*[#   3]+0.363*[#   8]+0.121*[#   6]+0.121*[#  11]+0.007*[#   4]
          +0.007*[#   7]+0.007*[#   9]+0.007*[#  12]
    |psi|^2 = 0.998
==== e(  12) =    16.70049 eV ==== 
     psi = 0.372*[#   6]+0.372*[#  11]+0.124*[#   3]+0.124*[#   8]+0.002*[#   1]
          +0.002*[#   2]
    |psi|^2 = 0.999
==== e(  13) =    36.25867 eV ==== 
 
    |psi|^2 = 0.000
==== e(  14) =    37.20234 eV ==== 
 
    |psi|^2 = 0.003
==== e(  15) =    37.84451 eV ==== 
 
    |psi|^2 = 0.000
==== e(  16) =    38.78094 eV ==== 
 
    |psi|^2 = 0.001

 k =   0.3125000000  0.0625000000  0.0625000000
==== e(   1) =     7.56150 eV ==== 
     psi = 0.458*[#   1]+0.458*[#   2]+0.023*[#   6]+0.023*[#  11]+0.008*[#   3]
          +0.008*[#   8]+0.005*[#   4]+0.005*[#   7]+0.005*[#   9]+0.005*[#  12]
          
    |psi|^2 = 0.998
==== e(   2) =     8.38772 eV ==== 
     psi = 0.470*[#   1]+0.470*[#   2]+0.017*[#   6]+0.017*[#  11]+0.006*[#   3]
          +0.006*[#   8]+0.003*[#   4]+0.003*[#   7]+0.003*[#   9]+0.003*[#  12]
          
    |psi|^2 = 0.997
==== e(   3) =    11.61637 eV ==== 
     psi = 0.167*[#   4]+0.167*[#   7]+0.167*[#   9]+0.167*[#  12]+0.158*[#   5]
          +0.158*[#  10]+0.007*[#   1]+0.007*[#   2]
    |psi|^2 = 1.000
==== e(   4) =    11.64871 eV ==== 
     psi = 0.221*[#   4]+0.221*[#   7]+0.221*[#   9]+0.221*[#  12]+0.044*[#   3]
          +0.044*[#   8]+0.015*[#   6]+0.015*[#  11]
    |psi|^2 = 1.000
==== e(   5) =    12.62114 eV ==== 
     psi = 0.342*[#   5]+0.342*[#  10]+0.077*[#   4]+0.077*[#   7]+0.077*[#   9]
          +0.077*[#  12]+0.004*[#   1]+0.004*[#   2]
    |psi|^2 = 1.000
==== e(   6) =    12.66381 eV ==== 
     psi = 0.331*[#   3]+0.331*[#   8]+0.110*[#   6]+0.110*[#  11]+0.029*[#   4]
          +0.029*[#   7]+0.029*[#   9]+0.029*[#  12]
    |psi|^2 = 0.999
==== e(   7) =    13.86598 eV ==== 
     psi = 0.352*[#   6]+0.352*[#  11]+0.117*[#   3]+0.117*[#   8]+0.030*[#   1]
          +0.030*[#   2]
    |psi|^2 = 0.999
==== e(   8) =    14.49632 eV ==== 
     psi = 0.204*[#   4]+0.204*[#   7]+0.204*[#   9]+0.204*[#  12]+0.067*[#   3]
          +0.067*[#   8]+0.022*[#   6]+0.022*[#  11]
    |psi|^2 = 0.997
==== e(   9) =    14.51920 eV ==== 
     psi = 0.176*[#   4]+0.176*[#   7]+0.176*[#   9]+0.176*[#  12]+0.142*[#   5]
          +0.142*[#  10]+0.005*[#   1]+0.005*[#   2]
    |psi|^2 = 0.998
==== e(  10) =    15.56129 eV ==== 
     psi = 0.306*[#   3]+0.306*[#   8]+0.102*[#   6]+0.102*[#  11]+0.045*[#   4]
          +0.045*[#   7]+0.045*[#   9]+0.045*[#  12]
    |psi|^2 = 0.997
==== e(  11) =    15.71352 eV ==== 
     psi = 0.358*[#   5]+0.358*[#  10]+0.070*[#   4]+0.070*[#   7]+0.070*[#   9]
          +0.070*[#  12]+0.003*[#   1]+0.003*[#   2]
    |psi|^2 = 0.999
==== e(  12) =    16.97363 eV ==== 
     psi = 0.358*[#   6]+0.358*[#  11]+0.119*[#   3]+0.119*[#   8]+0.021*[#   1]
          +0.021*[#   2]
    |psi|^2 = 1.000
==== e(  13) =    33.86614 eV ==== 
 
    |psi|^2 = 0.000
==== e(  14) =    35.04957 eV ==== 
     psi = 0.001*[#   3]+0.001*[#   8]
    |psi|^2 = 0.005
==== e(  15) =    35.47915 eV ==== 
 
    |psi|^2 = 0.000
==== e(  16) =    36.64263 eV ==== 
 
    |psi|^2 = 0.003

 k =   0.4375000000  0.0625000000  0.0625000000
==== e(   1) =     8.93946 eV ==== 
     psi = 0.334*[#   1]+0.334*[#   2]+0.104*[#   6]+0.104*[#  11]+0.035*[#   3]
          +0.035*[#   8]+0.013*[#   4]+0.013*[#   7]+0.013*[#   9]+0.013*[#  12]
          
    |psi|^2 = 0.998
==== e(   2) =     9.94204 eV ==== 
     psi = 0.384*[#   1]+0.384*[#   2]+0.075*[#   6]+0.075*[#  11]+0.025*[#   3]
          +0.025*[#   8]+0.007*[#   4]+0.007*[#   7]+0.007*[#   9]+0.007*[#  12]
          
    |psi|^2 = 0.997
==== e(   3) =    11.45706 eV ==== 
     psi = 0.240*[#   3]+0.240*[#   8]+0.090*[#   4]+0.090*[#   7]+0.090*[#   9]
          +0.090*[#  12]+0.080*[#   6]+0.080*[#  11]
    |psi|^2 = 1.000
==== e(   4) =    11.83612 eV ==== 
     psi = 0.173*[#   4]+0.173*[#   7]+0.173*[#   9]+0.173*[#  12]+0.135*[#   5]
          +0.135*[#  10]+0.012*[#   1]+0.012*[#   2]+0.006*[#   6]+0.006*[#  11]
          +0.002*[#   3]+0.002*[#   8]
    |psi|^2 = 1.000
==== e(   5) =    12.31014 eV ==== 
     psi = 0.160*[#   4]+0.160*[#   7]+0.160*[#   9]+0.160*[#  12]+0.135*[#   3]
          +0.135*[#   8]+0.045*[#   6]+0.045*[#  11]
    |psi|^2 = 1.000
==== e(   6) =    13.11638 eV ==== 
     psi = 0.364*[#   5]+0.364*[#  10]+0.063*[#   4]+0.063*[#   7]+0.063*[#   9]
          +0.063*[#  12]+0.006*[#   6]+0.006*[#  11]+0.002*[#   3]+0.002*[#   8]
          +0.002*[#   1]+0.002*[#   2]
    |psi|^2 = 1.000
==== e(   7) =    14.08296 eV ==== 
     psi = 0.267*[#   3]+0.267*[#   8]+0.089*[#   6]+0.089*[#  11]+0.070*[#   4]
          +0.070*[#   7]+0.070*[#   9]+0.070*[#  12]
    |psi|^2 = 0.993
==== e(   8) =    14.40857 eV ==== 
     psi = 0.259*[#   6]+0.259*[#  11]+0.151*[#   1]+0.151*[#   2]+0.086*[#   3]
          +0.086*[#   8]+0.001*[#   5]+0.001*[#  10]
    |psi|^2 = 0.998
==== e(   9) =    14.70542 eV ==== 
     psi = 0.185*[#   4]+0.185*[#   7]+0.185*[#   9]+0.185*[#  12]+0.117*[#   5]
          +0.117*[#  10]+0.008*[#   1]+0.008*[#   2]+0.002*[#   6]+0.002*[#  11]
          
    |psi|^2 = 0.996
==== e(  10) =    15.22770 eV ==== 
     psi = 0.179*[#   4]+0.179*[#   7]+0.179*[#   9]+0.179*[#  12]+0.106*[#   3]
          +0.106*[#   8]+0.035*[#   6]+0.035*[#  11]
    |psi|^2 = 0.997
==== e(  11) =    16.27307 eV ==== 
     psi = 0.381*[#   5]+0.381*[#  10]+0.056*[#   4]+0.056*[#   7]+0.056*[#   9]
          +0.056*[#  12]+0.003*[#   6]+0.003*[#  11]+0.001*[#   1]+0.001*[#   2]
          +0.001*[#   3]+0.001*[#   8]
    |psi|^2 = 0.999
==== e(  12) =    17.35682 eV ==== 
     psi = 0.294*[#   6]+0.294*[#  11]+0.105*[#   1]+0.105*[#   2]+0.098*[#   3]
          +0.098*[#   8]+0.001*[#   5]+0.001*[#  10]
    |psi|^2 = 0.999
==== e(  13) =    31.74043 eV ==== 
 
    |psi|^2 = 0.000
==== e(  14) =    32.71472 eV ==== 
 
    |psi|^2 = 0.002
==== e(  15) =    33.15419 eV ==== 
     psi = 0.002*[#   3]+0.002*[#   8]
    |psi|^2 = 0.006
==== e(  16) =    34.00162 eV ==== 
     psi = 0.001*[#   1]+0.001*[#   2]
    |psi|^2 = 0.006

 k =   0.5625000000  0.0625000000  0.0625000000
==== e(   1) =     9.84901 eV ==== 
     psi = 0.249*[#   6]+0.249*[#  11]+0.139*[#   1]+0.139*[#   2]+0.083*[#   3]
          +0.083*[#   8]+0.014*[#   4]+0.014*[#   7]+0.014*[#   9]+0.014*[#  12]
          
    |psi|^2 = 0.998
==== e(   2) =    10.80636 eV ==== 
     psi = 0.349*[#   3]+0.349*[#   8]+0.116*[#   6]+0.116*[#  11]+0.017*[#   4]
          +0.017*[#   7]+0.017*[#   9]+0.017*[#  12]
    |psi|^2 = 1.000
==== e(   3) =    11.28977 eV ==== 
     psi = 0.215*[#   1]+0.215*[#   2]+0.199*[#   6]+0.199*[#  11]+0.066*[#   3]
          +0.066*[#   8]+0.009*[#   4]+0.009*[#   7]+0.009*[#   9]+0.009*[#  12]
          
    |psi|^2 = 0.995
==== e(   4) =    12.19346 eV ==== 
     psi = 0.179*[#   4]+0.179*[#   7]+0.179*[#   9]+0.179*[#  12]+0.116*[#   5]
          +0.116*[#  10]+0.018*[#   6]+0.018*[#  11]+0.006*[#   3]+0.006*[#   8]
          +0.001*[#   1]+0.001*[#   2]
    |psi|^2 = 0.999
==== e(   5) =    12.57536 eV ==== 
     psi = 0.233*[#   4]+0.233*[#   7]+0.233*[#   9]+0.233*[#  12]+0.026*[#   3]
          +0.026*[#   8]+0.009*[#   6]+0.009*[#  11]
    |psi|^2 = 0.999
==== e(   6) =    13.24452 eV ==== 
     psi = 0.348*[#   3]+0.348*[#   8]+0.116*[#   6]+0.116*[#  11]+0.016*[#   4]
          +0.016*[#   7]+0.016*[#   9]+0.016*[#  12]
    |psi|^2 = 0.993
==== e(   7) =    13.61265 eV ==== 
     psi = 0.382*[#   5]+0.382*[#  10]+0.054*[#   4]+0.054*[#   7]+0.054*[#   9]
          +0.054*[#  12]+0.007*[#   6]+0.007*[#  11]+0.002*[#   3]+0.002*[#   8]
          
    |psi|^2 = 0.999
==== e(   8) =    15.08778 eV ==== 
     psi = 0.189*[#   4]+0.189*[#   7]+0.189*[#   9]+0.189*[#  12]+0.103*[#   5]
          +0.103*[#  10]+0.011*[#   6]+0.011*[#  11]+0.004*[#   3]+0.004*[#   8]
          +0.001*[#   1]+0.001*[#   2]
    |psi|^2 = 0.993
==== e(   9) =    15.52684 eV ==== 
     psi = 0.232*[#   4]+0.232*[#   7]+0.232*[#   9]+0.232*[#  12]+0.025*[#   3]
          +0.025*[#   8]+0.008*[#   6]+0.008*[#  11]
    |psi|^2 = 0.994
==== e(  10) =    15.81634 eV ==== 
     psi = 0.354*[#   1]+0.354*[#   2]+0.101*[#   6]+0.101*[#  11]+0.034*[#   3]
          +0.034*[#   8]+0.003*[#   4]+0.003*[#   7]+0.003*[#   9]+0.003*[#  12]
          +0.001*[#   5]+0.001*[#  10]
    |psi|^2 = 0.991
==== e(  11) =    16.84123 eV ==== 
     psi = 0.393*[#   5]+0.393*[#  10]+0.046*[#   4]+0.046*[#   7]+0.046*[#   9]
          +0.046*[#  12]+0.009*[#   6]+0.009*[#  11]+0.003*[#   3]+0.003*[#   8]
          +0.001*[#   1]+0.001*[#   2]
    |psi|^2 = 0.999
==== e(  12) =    18.23929 eV ==== 
     psi = 0.277*[#   1]+0.277*[#   2]+0.155*[#   6]+0.155*[#  11]+0.052*[#   3]
          +0.052*[#   8]+0.004*[#   4]+0.004*[#   5]+0.004*[#   7]+0.004*[#   9]
          +0.004*[#  10]+0.004*[#  12]
    |psi|^2 = 0.993
==== e(  13) =    29.62806 eV ==== 
 
    |psi|^2 = 0.000
==== e(  14) =    30.10116 eV ==== 
     psi = 0.003*[#   1]+0.003*[#   2]
    |psi|^2 = 0.007
==== e(  15) =    31.14884 eV ==== 
     psi = 0.001*[#   4]+0.001*[#   7]+0.001*[#   9]+0.001*[#  12]+0.001*[#   3]
          +0.001*[#   8]
    |psi|^2 = 0.008
==== e(  16) =    31.46308 eV ==== 
     psi = 0.004*[#   1]+0.004*[#   2]+0.002*[#   4]+0.002*[#   7]+0.002*[#   9]
          +0.002*[#  12]
    |psi|^2 = 0.014

 k =   0.6875000000  0.0625000000  0.0625000000
==== e(   1) =     9.92964 eV ==== 
     psi = 0.346*[#   6]+0.346*[#  11]+0.115*[#   3]+0.115*[#   8]+0.030*[#   1]
          +0.030*[#   2]+0.004*[#   4]+0.004*[#   7]+0.004*[#   9]+0.004*[#  12]
          
    |psi|^2 = 0.998
==== e(   2) =    10.10605 eV ==== 
     psi = 0.368*[#   3]+0.368*[#   8]+0.123*[#   6]+0.123*[#  11]+0.005*[#   4]
          +0.005*[#   7]+0.005*[#   9]+0.005*[#  12]
    |psi|^2 = 1.000
==== e(   3) =    11.83344 eV ==== 
     psi = 0.318*[#   6]+0.318*[#  11]+0.106*[#   3]+0.106*[#   8]+0.065*[#   1]
          +0.065*[#   2]+0.004*[#   4]+0.004*[#   7]+0.004*[#   9]+0.004*[#  12]
          
    |psi|^2 = 0.992
==== e(   4) =    12.40944 eV ==== 
     psi = 0.365*[#   3]+0.365*[#   8]+0.122*[#   6]+0.122*[#  11]+0.005*[#   4]
          +0.005*[#   7]+0.005*[#   9]+0.005*[#  12]
    |psi|^2 = 0.993
==== e(   5) =    12.72268 eV ==== 
     psi = 0.188*[#   4]+0.188*[#   7]+0.188*[#   9]+0.188*[#  12]+0.114*[#   5]
          +0.114*[#  10]+0.006*[#   6]+0.006*[#  11]+0.002*[#   3]+0.002*[#   8]
          
    |psi|^2 = 0.999
==== e(   6) =    13.17397 eV ==== 
     psi = 0.245*[#   4]+0.245*[#   7]+0.245*[#   9]+0.245*[#  12]+0.007*[#   3]
          +0.007*[#   8]+0.002*[#   6]+0.002*[#  11]
    |psi|^2 = 0.998
==== e(   7) =    14.06648 eV ==== 
     psi = 0.386*[#   5]+0.386*[#  10]+0.055*[#   4]+0.055*[#   7]+0.055*[#   9]
          +0.055*[#  12]+0.002*[#   6]+0.002*[#  11]+0.001*[#   1]+0.001*[#   2]
          
    |psi|^2 = 0.999
==== e(   8) =    15.67549 eV ==== 
     psi = 0.192*[#   4]+0.192*[#   7]+0.192*[#   9]+0.192*[#  12]+0.100*[#   5]
          +0.100*[#  10]+0.007*[#   6]+0.007*[#  11]+0.003*[#   1]+0.003*[#   2]
          +0.002*[#   3]+0.002*[#   8]
    |psi|^2 = 0.991
==== e(   9) =    16.20100 eV ==== 
     psi = 0.242*[#   4]+0.242*[#   7]+0.242*[#   9]+0.242*[#  12]+0.008*[#   3]
          +0.008*[#   8]+0.003*[#   6]+0.003*[#  11]
    |psi|^2 = 0.990
==== e(  10) =    17.36118 eV ==== 
     psi = 0.398*[#   5]+0.398*[#  10]+0.047*[#   4]+0.047*[#   7]+0.047*[#   9]
          +0.047*[#  12]+0.004*[#   6]+0.004*[#  11]+0.003*[#   1]+0.003*[#   2]
          +0.001*[#   3]+0.001*[#   8]
    |psi|^2 = 0.999
==== e(  11) =    18.33625 eV ==== 
     psi = 0.440*[#   1]+0.440*[#   2]+0.021*[#   6]+0.021*[#  11]+0.007*[#   3]
          +0.007*[#   8]+0.002*[#   4]+0.002*[#   7]+0.002*[#   9]+0.002*[#  12]
          
    |psi|^2 = 0.945
==== e(  12) =    20.15341 eV ==== 
     psi = 0.403*[#   1]+0.403*[#   2]+0.046*[#   6]+0.046*[#  11]+0.015*[#   3]
          +0.015*[#   8]+0.005*[#   4]+0.005*[#   7]+0.005*[#   9]+0.005*[#  12]
          +0.001*[#   5]+0.001*[#  10]
    |psi|^2 = 0.950
==== e(  13) =    27.46330 eV ==== 
 
    |psi|^2 = 0.001
==== e(  14) =    27.74652 eV ==== 
     psi = 0.018*[#   1]+0.018*[#   2]
    |psi|^2 = 0.038
==== e(  15) =    28.91395 eV ==== 
     psi = 0.003*[#   4]+0.003*[#   7]+0.003*[#   9]+0.003*[#  12]
    |psi|^2 = 0.012
==== e(  16) =    29.07942 eV ==== 
     psi = 0.018*[#   1]+0.018*[#   2]+0.003*[#   4]+0.003*[#   7]+0.003*[#   9]
          +0.003*[#  12]
    |psi|^2 = 0.048

 k =   0.8125000000  0.0625000000  0.0625000000
==== e(   1) =     9.56544 eV ==== 
     psi = 0.373*[#   3]+0.373*[#   8]+0.124*[#   6]+0.124*[#  11]+0.001*[#   4]
          +0.001*[#   7]+0.001*[#   9]+0.001*[#  12]
    |psi|^2 = 1.000
==== e(   2) =     9.57289 eV ==== 
     psi = 0.371*[#   6]+0.371*[#  11]+0.124*[#   3]+0.124*[#   8]+0.003*[#   1]
          +0.003*[#   2]
    |psi|^2 = 0.999
==== e(   3) =    11.68590 eV ==== 
     psi = 0.364*[#   6]+0.364*[#  11]+0.121*[#   3]+0.121*[#   8]+0.009*[#   1]
          +0.009*[#   2]
    |psi|^2 = 0.992
==== e(   4) =    11.77764 eV ==== 
     psi = 0.371*[#   3]+0.371*[#   8]+0.124*[#   6]+0.124*[#  11]+0.001*[#   4]
          +0.001*[#   7]+0.001*[#   9]+0.001*[#  12]
    |psi|^2 = 0.994
==== e(   5) =    13.43049 eV ==== 
     psi = 0.180*[#   4]+0.180*[#   7]+0.180*[#   9]+0.180*[#  12]+0.137*[#   5]
          +0.137*[#  10]+0.002*[#   1]+0.002*[#   2]
    |psi|^2 = 0.998
==== e(   6) =    13.88661 eV ==== 
     psi = 0.248*[#   4]+0.248*[#   7]+0.248*[#   9]+0.248*[#  12]+0.002*[#   3]
          +0.002*[#   8]
    |psi|^2 = 0.997
==== e(   7) =    14.37602 eV ==== 
     psi = 0.363*[#   5]+0.363*[#  10]+0.068*[#   4]+0.068*[#   7]+0.068*[#   9]
          +0.068*[#  12]
    |psi|^2 = 0.999
==== e(   8) =    16.50722 eV ==== 
     psi = 0.183*[#   4]+0.183*[#   7]+0.183*[#   9]+0.183*[#  12]+0.123*[#   5]
          +0.123*[#  10]+0.006*[#   1]+0.006*[#   2]
    |psi|^2 = 0.993
==== e(   9) =    17.06462 eV ==== 
     psi = 0.245*[#   4]+0.245*[#   7]+0.245*[#   9]+0.245*[#  12]+0.002*[#   3]
          +0.002*[#   8]
    |psi|^2 = 0.988
==== e(  10) =    17.72572 eV ==== 
     psi = 0.375*[#   5]+0.375*[#  10]+0.061*[#   4]+0.061*[#   7]+0.061*[#   9]
          +0.061*[#  12]+0.002*[#   1]+0.002*[#   2]
    |psi|^2 = 1.000
==== e(  11) =    21.51196 eV ==== 
     psi = 0.359*[#   1]+0.359*[#   2]+0.002*[#   6]+0.002*[#  11]
    |psi|^2 = 0.728
==== e(  12) =    22.91678 eV ==== 
     psi = 0.352*[#   1]+0.352*[#   2]+0.008*[#   6]+0.008*[#  11]+0.003*[#   3]
          +0.003*[#   8]+0.002*[#   4]+0.002*[#   7]+0.002*[#   9]+0.002*[#  12]
          
    |psi|^2 = 0.734
==== e(  13) =    25.57068 eV ==== 
 
    |psi|^2 = 0.002
==== e(  14) =    25.84207 eV ==== 
     psi = 0.090*[#   1]+0.090*[#   2]
    |psi|^2 = 0.184
==== e(  15) =    26.84472 eV ==== 
     psi = 0.003*[#   4]+0.003*[#   7]+0.003*[#   9]+0.003*[#  12]
    |psi|^2 = 0.013
==== e(  16) =    27.04593 eV ==== 
     psi = 0.090*[#   1]+0.090*[#   2]+0.003*[#   4]+0.003*[#   7]+0.003*[#   9]
          +0.003*[#  12]
    |psi|^2 = 0.194

 k =   0.1875000000  0.1875000000  0.0625000000
==== e(   1) =     6.97446 eV ==== 
     psi = 0.477*[#   1]+0.477*[#   2]+0.009*[#   4]+0.009*[#   7]+0.009*[#   9]
          +0.009*[#  12]+0.002*[#   3]+0.002*[#   8]+0.001*[#   6]+0.001*[#  11]
          +0.001*[#   5]+0.001*[#  10]
    |psi|^2 = 0.998
==== e(   2) =     7.77994 eV ==== 
     psi = 0.484*[#   1]+0.484*[#   2]+0.006*[#   4]+0.006*[#   7]+0.006*[#   9]
          +0.006*[#  12]+0.002*[#   3]+0.002*[#   8]
    |psi|^2 = 0.997
==== e(   3) =    11.31808 eV ==== 
     psi = 0.248*[#   5]+0.248*[#  10]+0.124*[#   4]+0.124*[#   7]+0.124*[#   9]
          +0.124*[#  12]+0.002*[#   6]+0.002*[#  11]+0.001*[#   3]+0.001*[#   8]
          
    |psi|^2 = 1.000
==== e(   4) =    11.56710 eV ==== 
     psi = 0.212*[#   4]+0.212*[#   7]+0.212*[#   9]+0.212*[#  12]+0.027*[#   5]
          +0.027*[#  10]+0.023*[#   3]+0.023*[#   8]+0.014*[#   6]+0.014*[#  11]
          +0.013*[#   1]+0.013*[#   2]
    |psi|^2 = 1.000
==== e(   5) =    12.67782 eV ==== 
     psi = 0.221*[#   5]+0.221*[#  10]+0.135*[#   4]+0.135*[#   7]+0.135*[#   9]
          +0.135*[#  12]+0.008*[#   1]+0.008*[#   2]
    |psi|^2 = 1.000
==== e(   6) =    13.25385 eV ==== 
     psi = 0.287*[#   3]+0.287*[#   8]+0.172*[#   6]+0.172*[#  11]+0.020*[#   4]
          +0.020*[#   7]+0.020*[#   9]+0.020*[#  12]
    |psi|^2 = 0.999
==== e(   7) =    13.53012 eV ==== 
     psi = 0.310*[#   6]+0.310*[#  11]+0.186*[#   3]+0.186*[#   8]+0.002*[#   5]
          +0.002*[#  10]
    |psi|^2 = 0.999
==== e(   8) =    14.21809 eV ==== 
     psi = 0.248*[#   5]+0.248*[#  10]+0.124*[#   4]+0.124*[#   7]+0.124*[#   9]
          +0.124*[#  12]+0.003*[#   6]+0.003*[#  11]+0.002*[#   3]+0.002*[#   8]
          
    |psi|^2 = 0.999
==== e(   9) =    14.40491 eV ==== 
     psi = 0.208*[#   4]+0.208*[#   7]+0.208*[#   9]+0.208*[#  12]+0.032*[#   3]
          +0.032*[#   8]+0.022*[#   5]+0.022*[#  10]+0.019*[#   6]+0.019*[#  11]
          +0.009*[#   1]+0.009*[#   2]
    |psi|^2 = 0.997
==== e(  10) =    15.77044 eV ==== 
     psi = 0.226*[#   5]+0.226*[#  10]+0.133*[#   4]+0.133*[#   7]+0.133*[#   9]
          +0.133*[#  12]+0.005*[#   1]+0.005*[#   2]
    |psi|^2 = 0.999
==== e(  11) =    16.29024 eV ==== 
     psi = 0.277*[#   3]+0.277*[#   8]+0.166*[#   6]+0.166*[#  11]+0.028*[#   4]
          +0.028*[#   7]+0.028*[#   9]+0.028*[#  12]
    |psi|^2 = 0.999
==== e(  12) =    16.61046 eV ==== 
     psi = 0.310*[#   6]+0.310*[#  11]+0.186*[#   3]+0.186*[#   8]+0.002*[#   5]
          +0.002*[#  10]+0.001*[#   4]+0.001*[#   7]+0.001*[#   9]+0.001*[#  12]
          
    |psi|^2 = 0.999
==== e(  13) =    33.96470 eV ==== 
 
    |psi|^2 = 0.000
==== e(  14) =    35.14994 eV ==== 
 
    |psi|^2 = 0.004
==== e(  15) =    36.72724 eV ==== 
 
    |psi|^2 = 0.000
==== e(  16) =    37.60111 eV ==== 
 
    |psi|^2 = 0.002

 k =   0.1875000000  0.3125000000  0.0625000000
==== e(   1) =     8.02377 eV ==== 
     psi = 0.408*[#   1]+0.408*[#   2]+0.029*[#   4]+0.029*[#   7]+0.029*[#   9]
          +0.029*[#  12]+0.022*[#   3]+0.022*[#   8]+0.007*[#   6]+0.007*[#  11]
          +0.004*[#   5]+0.004*[#  10]
    |psi|^2 = 0.998
==== e(   2) =     8.92763 eV ==== 
     psi = 0.442*[#   1]+0.442*[#   2]+0.017*[#   4]+0.017*[#   7]+0.017*[#   9]
          +0.017*[#  12]+0.015*[#   3]+0.015*[#   8]+0.005*[#   6]+0.005*[#  11]
          +0.003*[#   5]+0.003*[#  10]
    |psi|^2 = 0.997
==== e(   3) =    11.17440 eV ==== 
     psi = 0.287*[#   5]+0.287*[#  10]+0.103*[#   4]+0.103*[#   7]+0.103*[#   9]
          +0.103*[#  12]+0.005*[#   6]+0.005*[#  11]+0.002*[#   3]+0.002*[#   8]
          
    |psi|^2 = 1.000
==== e(   4) =    11.54954 eV ==== 
     psi = 0.172*[#   4]+0.172*[#   7]+0.172*[#   9]+0.172*[#  12]+0.054*[#   6]
          +0.054*[#  11]+0.053*[#   1]+0.053*[#   2]+0.038*[#   3]+0.038*[#   8]
          +0.010*[#   5]+0.010*[#  10]
    |psi|^2 = 0.999
==== e(   5) =    13.02803 eV ==== 
     psi = 0.231*[#   6]+0.231*[#  11]+0.157*[#   3]+0.157*[#   8]+0.043*[#   4]
          +0.043*[#   7]+0.043*[#   9]+0.043*[#  12]+0.025*[#   5]+0.025*[#  10]
          
    |psi|^2 = 0.999
==== e(   6) =    13.23723 eV ==== 
     psi = 0.174*[#   5]+0.174*[#  10]+0.150*[#   4]+0.150*[#   7]+0.150*[#   9]
          +0.150*[#  12]+0.014*[#   1]+0.014*[#   2]+0.009*[#   3]+0.009*[#   8]
          +0.003*[#   6]+0.003*[#  11]
    |psi|^2 = 0.999
==== e(   7) =    13.75020 eV ==== 
     psi = 0.272*[#   3]+0.272*[#   8]+0.199*[#   6]+0.199*[#  11]+0.023*[#   1]
          +0.023*[#   2]+0.003*[#   4]+0.003*[#   7]+0.003*[#   9]+0.003*[#  12]
          
    |psi|^2 = 0.999
==== e(   8) =    14.01918 eV ==== 
     psi = 0.294*[#   5]+0.294*[#  10]+0.094*[#   4]+0.094*[#   7]+0.094*[#   9]
          +0.094*[#  12]+0.012*[#   6]+0.012*[#  11]+0.005*[#   3]+0.005*[#   8]
          
    |psi|^2 = 0.998
==== e(   9) =    14.19120 eV ==== 
     psi = 0.178*[#   4]+0.178*[#   7]+0.178*[#   9]+0.178*[#  12]+0.058*[#   6]
          +0.058*[#  11]+0.051*[#   3]+0.051*[#   8]+0.033*[#   1]+0.033*[#   2]
          
    |psi|^2 = 0.993
==== e(  10) =    16.04532 eV ==== 
     psi = 0.223*[#   6]+0.223*[#  11]+0.146*[#   3]+0.146*[#   8]+0.054*[#   4]
          +0.054*[#   7]+0.054*[#   9]+0.054*[#  12]+0.022*[#   5]+0.022*[#  10]
          
    |psi|^2 = 0.998
==== e(  11) =    16.38376 eV ==== 
     psi = 0.180*[#   5]+0.180*[#  10]+0.153*[#   4]+0.153*[#   7]+0.153*[#   9]
          +0.153*[#  12]+0.009*[#   1]+0.009*[#   2]+0.003*[#   3]+0.003*[#   8]
          +0.001*[#   6]+0.001*[#  11]
    |psi|^2 = 0.998
==== e(  12) =    16.84897 eV ==== 
     psi = 0.279*[#   3]+0.279*[#   8]+0.200*[#   6]+0.200*[#  11]+0.013*[#   1]
          +0.013*[#   2]+0.003*[#   4]+0.003*[#   7]+0.003*[#   9]+0.003*[#  12]
          
    |psi|^2 = 0.999
==== e(  13) =    31.17715 eV ==== 
 
    |psi|^2 = 0.001
==== e(  14) =    32.55659 eV ==== 
 
    |psi|^2 = 0.008
==== e(  15) =    34.91362 eV ==== 
 
    |psi|^2 = 0.000
==== e(  16) =    35.90582 eV ==== 
 
    |psi|^2 = 0.002

 k =   0.3125000000  0.0625000000  0.1875000000
==== e(   1) =     8.02377 eV ==== 
     psi = 0.408*[#   1]+0.408*[#   2]+0.031*[#   4]+0.031*[#   7]+0.031*[#   9]
          +0.031*[#  12]+0.019*[#   6]+0.019*[#  11]+0.010*[#   3]+0.010*[#   8]
          
    |psi|^2 = 0.998
==== e(   2) =     8.92763 eV ==== 
     psi = 0.442*[#   1]+0.442*[#   2]+0.018*[#   4]+0.018*[#   7]+0.018*[#   9]
          +0.018*[#  12]+0.014*[#   6]+0.014*[#  11]+0.007*[#   3]+0.007*[#   8]
          
    |psi|^2 = 0.997
==== e(   3) =    11.17440 eV ==== 
     psi = 0.205*[#   5]+0.205*[#  10]+0.144*[#   4]+0.144*[#   7]+0.144*[#   9]
          +0.144*[#  12]+0.005*[#   3]+0.005*[#   8]+0.002*[#   6]+0.002*[#  11]
          
    |psi|^2 = 1.000
==== e(   4) =    11.54953 eV ==== 
     psi = 0.159*[#   4]+0.159*[#   7]+0.159*[#   9]+0.159*[#  12]+0.069*[#   3]
          +0.069*[#   8]+0.053*[#   1]+0.053*[#   2]+0.037*[#   5]+0.037*[#  10]
          +0.023*[#   6]+0.023*[#  11]
    |psi|^2 = 0.999
==== e(   5) =    13.02801 eV ==== 
     psi = 0.290*[#   3]+0.290*[#   8]+0.098*[#   6]+0.098*[#  11]+0.051*[#   4]
          +0.051*[#   7]+0.051*[#   9]+0.051*[#  12]+0.009*[#   5]+0.009*[#  10]
          
    |psi|^2 = 0.999
==== e(   6) =    13.23722 eV ==== 
     psi = 0.243*[#   5]+0.243*[#  10]+0.115*[#   4]+0.115*[#   7]+0.115*[#   9]
          +0.115*[#  12]+0.014*[#   1]+0.014*[#   2]+0.007*[#   6]+0.007*[#  11]
          +0.005*[#   3]+0.005*[#   8]
    |psi|^2 = 0.999
==== e(   7) =    13.75024 eV ==== 
     psi = 0.350*[#   6]+0.350*[#  11]+0.120*[#   3]+0.120*[#   8]+0.023*[#   1]
          +0.023*[#   2]+0.005*[#   5]+0.005*[#  10]
    |psi|^2 = 0.999
==== e(   8) =    14.01919 eV ==== 
     psi = 0.180*[#   5]+0.180*[#  10]+0.151*[#   4]+0.151*[#   7]+0.151*[#   9]
          +0.151*[#  12]+0.013*[#   3]+0.013*[#   8]+0.005*[#   6]+0.005*[#  11]
          
    |psi|^2 = 0.998
==== e(   9) =    14.19119 eV ==== 
     psi = 0.154*[#   4]+0.154*[#   7]+0.154*[#   9]+0.154*[#  12]+0.079*[#   3]
          +0.079*[#   8]+0.048*[#   5]+0.048*[#  10]+0.033*[#   1]+0.033*[#   2]
          +0.029*[#   6]+0.029*[#  11]
    |psi|^2 = 0.993
==== e(  10) =    16.04530 eV ==== 
     psi = 0.276*[#   3]+0.276*[#   8]+0.092*[#   6]+0.092*[#  11]+0.063*[#   4]
          +0.063*[#   7]+0.063*[#   9]+0.063*[#  12]+0.005*[#   5]+0.005*[#  10]
          
    |psi|^2 = 0.998
==== e(  11) =    16.38376 eV ==== 
     psi = 0.263*[#   5]+0.263*[#  10]+0.111*[#   4]+0.111*[#   7]+0.111*[#   9]
          +0.111*[#  12]+0.009*[#   1]+0.009*[#   2]+0.002*[#   3]+0.002*[#   8]
          +0.002*[#   6]+0.002*[#  11]
    |psi|^2 = 0.998
==== e(  12) =    16.84900 eV ==== 
     psi = 0.358*[#   6]+0.358*[#  11]+0.122*[#   3]+0.122*[#   8]+0.013*[#   1]
          +0.013*[#   2]+0.003*[#   5]+0.003*[#  10]+0.002*[#   4]+0.002*[#   7]
          +0.002*[#   9]+0.002*[#  12]
    |psi|^2 = 0.999
==== e(  13) =    31.17714 eV ==== 
 
    |psi|^2 = 0.001
==== e(  14) =    32.55659 eV ==== 
 
    |psi|^2 = 0.008
==== e(  15) =    34.91363 eV ==== 
 
    |psi|^2 = 0.000
==== e(  16) =    35.90582 eV ==== 
 
    |psi|^2 = 0.002

 k =   0.1875000000  0.4375000000  0.0625000000
==== e(   1) =     9.10405 eV ==== 
     psi = 0.242*[#   1]+0.242*[#   2]+0.089*[#   3]+0.089*[#   8]+0.064*[#   4]
          +0.064*[#   7]+0.064*[#   9]+0.064*[#  12]+0.031*[#   6]+0.031*[#  11]
          +0.008*[#   5]+0.008*[#  10]
    |psi|^2 = 0.997
==== e(   2) =    10.30609 eV ==== 
     psi = 0.330*[#   1]+0.330*[#   2]+0.065*[#   3]+0.065*[#   8]+0.036*[#   4]
          +0.036*[#   7]+0.036*[#   9]+0.036*[#  12]+0.025*[#   6]+0.025*[#  11]
          +0.006*[#   5]+0.006*[#  10]
    |psi|^2 = 0.996
==== e(   3) =    11.18739 eV ==== 
     psi = 0.272*[#   5]+0.272*[#  10]+0.070*[#   4]+0.070*[#   7]+0.070*[#   9]
          +0.070*[#  12]+0.057*[#   6]+0.057*[#  11]+0.028*[#   3]+0.028*[#   8]
          +0.003*[#   1]+0.003*[#   2]
    |psi|^2 = 1.000
==== e(   4) =    11.54262 eV ==== 
     psi = 0.148*[#   6]+0.148*[#  11]+0.105*[#   4]+0.105*[#   7]+0.105*[#   9]
          +0.105*[#  12]+0.070*[#   1]+0.070*[#   2]+0.052*[#   3]+0.052*[#   8]
          +0.020*[#   5]+0.020*[#  10]
    |psi|^2 = 0.997
==== e(   5) =    12.85223 eV ==== 
     psi = 0.125*[#   3]+0.125*[#   8]+0.120*[#   6]+0.120*[#  11]+0.109*[#   4]
          +0.109*[#   7]+0.109*[#   9]+0.109*[#  12]+0.030*[#   5]+0.030*[#  10]
          +0.007*[#   1]+0.007*[#   2]
    |psi|^2 = 0.999
==== e(   6) =    13.69849 eV ==== 
     psi = 0.154*[#   5]+0.154*[#  10]+0.133*[#   4]+0.133*[#   7]+0.133*[#   9]
          +0.133*[#  12]+0.049*[#   3]+0.049*[#   8]+0.031*[#   6]+0.031*[#  11]
          
    |psi|^2 = 0.999
==== e(   7) =    13.79353 eV ==== 
     psi = 0.161*[#   6]+0.161*[#  11]+0.100*[#   5]+0.100*[#  10]+0.079*[#   3]
          +0.079*[#   8]+0.064*[#   4]+0.064*[#   7]+0.064*[#   9]+0.064*[#  12]
          +0.025*[#   1]+0.025*[#   2]
    |psi|^2 = 0.989
==== e(   8) =    14.14344 eV ==== 
     psi = 0.195*[#   5]+0.195*[#  10]+0.126*[#   4]+0.126*[#   7]+0.126*[#   9]
          +0.126*[#  12]+0.022*[#   1]+0.022*[#   2]+0.020*[#   6]+0.020*[#  11]
          +0.008*[#   3]+0.008*[#   8]
    |psi|^2 = 0.994
==== e(   9) =    14.46489 eV ==== 
     psi = 0.174*[#   1]+0.174*[#   2]+0.157*[#   3]+0.157*[#   8]+0.112*[#   6]
          +0.112*[#  11]+0.020*[#   4]+0.020*[#   7]+0.020*[#   9]+0.020*[#  12]
          +0.015*[#   5]+0.015*[#  10]
    |psi|^2 = 0.994
==== e(  10) =    15.83653 eV ==== 
     psi = 0.126*[#   6]+0.126*[#  11]+0.114*[#   4]+0.114*[#   7]+0.114*[#   9]
          +0.114*[#  12]+0.108*[#   3]+0.108*[#   8]+0.029*[#   5]+0.029*[#  10]
          +0.007*[#   1]+0.007*[#   2]
    |psi|^2 = 0.997
==== e(  11) =    16.92225 eV ==== 
     psi = 0.143*[#   5]+0.143*[#  10]+0.128*[#   4]+0.128*[#   7]+0.128*[#   9]
          +0.128*[#  12]+0.060*[#   3]+0.060*[#   8]+0.039*[#   6]+0.039*[#  11]
          
    |psi|^2 = 0.999
==== e(  12) =    17.36363 eV ==== 
     psi = 0.178*[#   3]+0.178*[#   8]+0.126*[#   6]+0.126*[#  11]+0.108*[#   1]
          +0.108*[#   2]+0.030*[#   4]+0.030*[#   7]+0.030*[#   9]+0.030*[#  12]
          +0.025*[#   5]+0.025*[#  10]
    |psi|^2 = 0.995
==== e(  13) =    28.62657 eV ==== 
     psi = 0.004*[#   1]+0.004*[#   2]
    |psi|^2 = 0.008
==== e(  14) =    30.16201 eV ==== 
     psi = 0.005*[#   1]+0.005*[#   2]+0.002*[#   4]+0.002*[#   7]+0.002*[#   9]
          +0.002*[#  12]
    |psi|^2 = 0.020
==== e(  15) =    32.60511 eV ==== 
 
    |psi|^2 = 0.002
==== e(  16) =    33.80295 eV ==== 
 
    |psi|^2 = 0.005

 k =   0.4375000000  0.0625000000  0.1875000000
==== e(   1) =     9.10405 eV ==== 
     psi = 0.242*[#   1]+0.242*[#   2]+0.082*[#   6]+0.082*[#  11]+0.068*[#   4]
          +0.068*[#   7]+0.068*[#   9]+0.068*[#  12]+0.039*[#   3]+0.039*[#   8]
          
    |psi|^2 = 0.997
==== e(   2) =    10.30608 eV ==== 
     psi = 0.330*[#   1]+0.330*[#   2]+0.065*[#   6]+0.065*[#  11]+0.039*[#   4]
          +0.039*[#   7]+0.039*[#   9]+0.039*[#  12]+0.026*[#   3]+0.026*[#   8]
          
    |psi|^2 = 0.996
==== e(   3) =    11.18739 eV ==== 
     psi = 0.146*[#   4]+0.146*[#   7]+0.146*[#   9]+0.146*[#  12]+0.121*[#   5]
          +0.121*[#  10]+0.063*[#   3]+0.063*[#   8]+0.022*[#   6]+0.022*[#  11]
          +0.003*[#   1]+0.003*[#   2]
    |psi|^2 = 1.000
==== e(   4) =    11.54259 eV ==== 
     psi = 0.135*[#   3]+0.135*[#   8]+0.103*[#   5]+0.103*[#  10]+0.070*[#   1]
          +0.070*[#   2]+0.065*[#   6]+0.065*[#  11]+0.063*[#   4]+0.063*[#   7]
          +0.063*[#   9]+0.063*[#  12]
    |psi|^2 = 0.997
==== e(   5) =    12.85222 eV ==== 
     psi = 0.174*[#   3]+0.174*[#   8]+0.121*[#   4]+0.121*[#   7]+0.121*[#   9]
          +0.121*[#  12]+0.071*[#   6]+0.071*[#  11]+0.007*[#   1]+0.007*[#   2]
          +0.006*[#   5]+0.006*[#  10]
    |psi|^2 = 0.999
==== e(   6) =    13.69849 eV ==== 
     psi = 0.242*[#   5]+0.242*[#  10]+0.089*[#   4]+0.089*[#   7]+0.089*[#   9]
          +0.089*[#  12]+0.060*[#   6]+0.060*[#  11]+0.020*[#   3]+0.020*[#   8]
          
    |psi|^2 = 0.999
==== e(   7) =    13.79351 eV ==== 
     psi = 0.178*[#   3]+0.178*[#   8]+0.109*[#   4]+0.109*[#   7]+0.109*[#   9]
          +0.109*[#  12]+0.062*[#   6]+0.062*[#  11]+0.025*[#   1]+0.025*[#   2]
          +0.011*[#   5]+0.011*[#  10]
    |psi|^2 = 0.989
==== e(   8) =    14.14343 eV ==== 
     psi = 0.199*[#   5]+0.199*[#  10]+0.124*[#   4]+0.124*[#   7]+0.124*[#   9]
          +0.124*[#  12]+0.022*[#   1]+0.022*[#   2]+0.019*[#   3]+0.019*[#   8]
          +0.008*[#   6]+0.008*[#  11]
    |psi|^2 = 0.994
==== e(   9) =    14.46493 eV ==== 
     psi = 0.201*[#   6]+0.201*[#  11]+0.174*[#   1]+0.174*[#   2]+0.068*[#   3]
          +0.068*[#   8]+0.029*[#   5]+0.029*[#  10]+0.013*[#   4]+0.013*[#   7]
          +0.013*[#   9]+0.013*[#  12]
    |psi|^2 = 0.994
==== e(  10) =    15.83652 eV ==== 
     psi = 0.171*[#   3]+0.171*[#   8]+0.128*[#   4]+0.128*[#   7]+0.128*[#   9]
          +0.128*[#  12]+0.063*[#   6]+0.063*[#  11]+0.007*[#   1]+0.007*[#   2]
          +0.003*[#   5]+0.003*[#  10]
    |psi|^2 = 0.997
==== e(  11) =    16.92225 eV ==== 
     psi = 0.234*[#   5]+0.234*[#  10]+0.082*[#   4]+0.082*[#   7]+0.082*[#   9]
          +0.082*[#  12]+0.075*[#   6]+0.075*[#  11]+0.025*[#   3]+0.025*[#   8]
          
    |psi|^2 = 0.999
==== e(  12) =    17.36366 eV ==== 
     psi = 0.227*[#   6]+0.227*[#  11]+0.108*[#   1]+0.108*[#   2]+0.077*[#   3]
          +0.077*[#   8]+0.053*[#   5]+0.053*[#  10]+0.016*[#   4]+0.016*[#   7]
          +0.016*[#   9]+0.016*[#  12]
    |psi|^2 = 0.995
==== e(  13) =    28.62657 eV ==== 
     psi = 0.004*[#   1]+0.004*[#   2]
    |psi|^2 = 0.008
==== e(  14) =    30.16200 eV ==== 
     psi = 0.005*[#   1]+0.005*[#   2]+0.002*[#   4]+0.002*[#   7]+0.002*[#   9]
          +0.002*[#  12]+0.001*[#   3]+0.001*[#   8]
    |psi|^2 = 0.020
==== e(  15) =    32.60511 eV ==== 
 
    |psi|^2 = 0.002
==== e(  16) =    33.80296 eV ==== 
 
    |psi|^2 = 0.005

Lowdin Charges: 

     Atom #   1: total charge =   7.9828, s =  1.3216, p =  0.0000, d =  6.6612, 
                 spin up      =   3.9914, s =  0.6608, 
                 spin up      =   3.9914, p =  0.0000, 
                 spin up      =   3.9914, d =  3.3306, 
                 spin down    =   3.9914, s =  0.6608, 
                 spin down    =   3.9914, p =  0.0000, 
                 spin down    =   3.9914, d =  3.3306, 
                 polarization =   0.0000, s =  0.0000, p =  0.0000, d = -0.0000, 
     Spilling Parameter:   0.0022
 
     PROJWFC      :      1.11s CPU      1.26s WALL

 
   This run was terminated on:   8:21: 1  17Aug2020            

=------------------------------------------------------------------------------=
   JOB DONE.
=------------------------------------------------------------------------------=
