
     Program PHONON v.6.3MaX starts on  9Aug2019 at 12:13:51

     This program is part of the open-source Quantum ESPRESSO suite
     for quantum simulation of materials; please cite
         "P. Giannozzi et al., J. Phys.:Condens. Matter 21 395502 (2009);
         "P. Giannozzi et al., J. Phys.:Condens. Matter 29 465901 (2017);
          URL http://www.quantum-espresso.org",
     in publications or presentations arising from this work. More details at
     http://www.quantum-espresso.org/quote

 *** WARNING: using old-style file format, will disappear from next version ***

     Serial version
      Title line not specified: using 'default'.
     Message from routine phq_readin:
     iverbosity is obsolete, use "verbosity" instead

     Reading data from directory:
     ./out/aiida.save
     Message from routine volume:
     axis vectors are left-handed

     IMPORTANT: XC functional enforced from input :
     Exchange-correlation      = PBE ( 1  4  3  4 0 0)
     Any further DFT definition will be discarded
     Please, verify this is what you really want


     G-vector sticks info
     --------------------
     sticks:   dense  smooth     PW     G-vecs:    dense   smooth      PW
     Sum         859     433    127                16889     5985     965

        3 /   3 q-points for this run, from  1 to  3:
       N       xq(1)         xq(2)         xq(3)
       1   0.000000000   0.000000000   0.000000000
       2   0.353553391  -0.353553391  -0.353553391
       3   0.000000000   0.000000000  -0.707106781


     Calculation of q =    0.0000000   0.0000000   0.0000000

     Restart in Phonon calculation



     bravais-lattice index     =            0
     lattice parameter (alat)  =       7.2558  a.u.
     unit-cell volume          =     270.1072 (a.u.)^3
     number of atoms/cell      =            2
     number of atomic types    =            1
     kinetic-energy cut-off    =      30.0000  Ry
     charge density cut-off    =     240.0000  Ry
     convergence threshold     =      1.0E-12
     beta                      =       0.7000
     number of iterations used =            4
     Exchange-correlation      = PBE ( 1  4  3  4 0 0)


     celldm(1)=    7.25577  celldm(2)=    0.00000  celldm(3)=    0.00000
     celldm(4)=    0.00000  celldm(5)=    0.00000  celldm(6)=    0.00000

     crystal axes: (cart. coord. in units of alat)
               a(1) = (  0.7071  0.7071  0.0000 )
               a(2) = (  0.7071  0.0000  0.7071 )
               a(3) = (  0.0000  0.7071  0.7071 )

     reciprocal axes: (cart. coord. in units 2 pi/alat)
               b(1) = (  0.7071  0.7071 -0.7071 )
               b(2) = (  0.7071 -0.7071  0.7071 )
               b(3) = ( -0.7071  0.7071  0.7071 )


     Atoms inside the unit cell:

     Cartesian axes

     site n.  atom      mass           positions (alat units)
        1     Si  28.0855   tau(    1) = (    0.00000    0.00000    0.00000  )
        2     Si  28.0855   tau(    2) = (    0.35355    0.35355    0.35355  )

     Computing dynamical matrix for
                    q = (   0.0000000   0.0000000   0.0000000 )

     49 Sym.Ops. (with q -> -q+G )

                                    s                        frac. trans.

...

     point group O_h (m-3m)
     there are 10 classes
     the character table:

       E     8C3   3C2   6C4   6C2'  i     8S6   3s_h  6S4   6s_d
A_1g   1.00  1.00  1.00  1.00  1.00  1.00  1.00  1.00  1.00  1.00
A_2g   1.00  1.00  1.00 -1.00 -1.00  1.00  1.00  1.00 -1.00 -1.00
E_g    2.00 -1.00  2.00  0.00  0.00  2.00 -1.00  2.00  0.00  0.00
T_1g   3.00  0.00 -1.00  1.00 -1.00  3.00  0.00 -1.00  1.00 -1.00
T_2g   3.00  0.00 -1.00 -1.00  1.00  3.00  0.00 -1.00 -1.00  1.00
A_1u   1.00  1.00  1.00  1.00  1.00 -1.00 -1.00 -1.00 -1.00 -1.00
A_2u   1.00  1.00  1.00 -1.00 -1.00 -1.00 -1.00 -1.00  1.00  1.00
E_u    2.00 -1.00  2.00  0.00  0.00 -2.00  1.00 -2.00  0.00  0.00
T_1u   3.00  0.00 -1.00  1.00 -1.00 -3.00  0.00  1.00 -1.00  1.00
T_2u   3.00  0.00 -1.00 -1.00  1.00 -3.00  0.00  1.00  1.00 -1.00

     the symmetry operations in each class and the name of the first element:

     E        1

     8C3     17   19   20   18   24   21   22   23

     3C2      2    4    3

     6C4      7    8   15   16   12   11

     6C2'     5    6   14   13   10    9

     i       25

     8S6     41   43   44   42   48   45   46   47

     3s_h    26   28   27

     6S4     31   32   39   40   36   35

     6s_d    29   30   38   37   34   33



     Electric field:
     Dielectric constant
     Born effective charges in two ways


     Atomic displacements:
     There are   2 irreducible representations

     Representation     1      3 modes -T_2g G_25' G_5+  Done
     Irreps are as follows:

     mode #   1              mode #   2              mode #   3
     (  -0.39165  -0.00000 ) (  -0.04656  -0.00000 ) (  -0.58689  -0.00000 )
     (   0.39433  -0.00000 ) (   0.50267   0.00000 ) (  -0.30303  -0.00000 )
     (  -0.43717  -0.00000 ) (   0.49513   0.00000 ) (   0.25245  -0.00000 )
     (   0.39165  -0.00000 ) (   0.04656   0.00000 ) (   0.58689  -0.00000 )
     (  -0.39433  -0.00000 ) (  -0.50267  -0.00000 ) (   0.30303   0.00000 )
     (   0.43717  -0.00000 ) (  -0.49513  -0.00000 ) (  -0.25245  -0.00000 )

     Representation     2      3 modes -T_1u G_15  G_4-  To be done
     Irreps are as follows:

     mode #   4              mode #   5              mode #   6
     (  -0.43362  -0.00000 ) (  -0.21904  -0.00000 ) (  -0.51380  -0.00000 )
     (  -0.53853  -0.00000 ) (   0.33655   0.00000 ) (   0.31101   0.00000 )
     (   0.14820   0.00000 ) (   0.58203   0.00000 ) (  -0.37320  -0.00000 )
     (  -0.43362  -0.00000 ) (  -0.21904  -0.00000 ) (  -0.51380  -0.00000 )
     (  -0.53853  -0.00000 ) (   0.33655   0.00000 ) (   0.31101   0.00000 )
     (   0.14820   0.00000 ) (   0.58203   0.00000 ) (  -0.37320  -0.00000 )


     PHONON       :     1.54s CPU         1.58s WALL


          Dielectric constant in cartesian axis

          (      57.362296721       0.000000000      -0.000000000 )
          (       0.000000000      57.362296721      -0.000000000 )
          (       0.000000000       0.000000000      57.362296721 )

          Effective charges (d Force / dE) in cartesian axis

           atom      1   Si
      Ex  (       -5.50537       -0.00000       -0.00000 )
      Ey  (       -0.00000       -5.50537       -0.00000 )
      Ez  (       -0.00000       -0.00000       -5.50537 )
           atom      2   Si
      Ex  (       -5.50537       -0.00000       -0.00000 )
      Ey  (       -0.00000       -5.50537       -0.00000 )
      Ez  (       -0.00000       -0.00000       -5.50537 )


     Representation #  2 modes #   4  5  6

     Self-consistent Calculation

      iter #   4 total cpu time :     2.6 secs   av.it.:   9.8
      thresh= 1.370E-06 alpha_mix =  0.700 |ddv_scf|^2 =  4.353E-13

     End of self-consistent calculation

     Convergence has been achieved

     Number of q in the star =    1
     List of q in the star:
          1   0.000000000   0.000000000   0.000000000

          Dielectric constant in cartesian axis

          (      57.362296721       0.000000000      -0.000000000 )
          (       0.000000000      57.362296721      -0.000000000 )
          (       0.000000000       0.000000000      57.362296721 )

          Effective charges (d Force / dE) in cartesian axis

           atom      1   Si
      Ex  (       -5.50537       -0.00000       -0.00000 )
      Ey  (       -0.00000       -5.50537       -0.00000 )
      Ez  (       -0.00000       -0.00000       -5.50537 )
           atom      2   Si
      Ex  (       -5.50537       -0.00000       -0.00000 )
      Ey  (       -0.00000       -5.50537       -0.00000 )
      Ez  (       -0.00000       -0.00000       -5.50537 )

          Effective charges (d P / du) in cartesian axis

           atom      1   Si
      Px  (       -5.49323        0.00000        0.00000 )
      Py  (        0.00000       -5.49323        0.00000 )
      Pz  (        0.00000        0.00000       -5.49323 )
           atom      2   Si
      Px  (       -5.49323        0.00000       -0.00000 )
      Py  (        0.00000       -5.49323        0.00000 )
      Pz  (       -0.00000        0.00000       -5.49323 )

     Diagonalizing the dynamical matrix

     q = (    0.000000000   0.000000000   0.000000000 )

 **************************************************************************
     freq (    1) =      -0.640673 [THz] =     -21.370545 [cm-1]
     freq (    2) =      -0.640673 [THz] =     -21.370545 [cm-1]
     freq (    3) =      -0.640673 [THz] =     -21.370545 [cm-1]
     freq (    4) =      17.555501 [THz] =     585.588486 [cm-1]
     freq (    5) =      17.555501 [THz] =     585.588486 [cm-1]
     freq (    6) =      17.555501 [THz] =     585.588486 [cm-1]
 **************************************************************************

     Mode symmetry, O_h (m-3m)  point group:

     freq (  1 -  3) =        -21.4  [cm-1]   --> T_1u G_15  G_4- I
     freq (  4 -  6) =        585.6  [cm-1]   --> T_2g G_25' G_5+ R

     Calculation of q =    0.3535534  -0.3535534  -0.3535534

     G-vector sticks info
     --------------------
     sticks:   dense  smooth     PW     G-vecs:    dense   smooth      PW
     Sum         859     433    151                16889     5985    1243



     bravais-lattice index     =            0
     lattice parameter (alat)  =       7.2558  a.u.
     unit-cell volume          =     270.1072 (a.u.)^3
     number of atoms/cell      =            2
     number of atomic types    =            1
     number of electrons       =         8.00
     number of Kohn-Sham states=            4
     kinetic-energy cutoff     =      30.0000  Ry
     charge density cutoff     =     240.0000  Ry
     Exchange-correlation      = PBE ( 1  4  3  4 0 0)

     celldm(1)=   7.255773  celldm(2)=   0.000000  celldm(3)=   0.000000
     celldm(4)=   0.000000  celldm(5)=   0.000000  celldm(6)=   0.000000

     crystal axes: (cart. coord. in units of alat)
               a(1) = (   0.707107   0.707107   0.000000 )
               a(2) = (   0.707107   0.000000   0.707107 )
               a(3) = (   0.000000   0.707107   0.707107 )

     reciprocal axes: (cart. coord. in units 2 pi/alat)
               b(1) = (  0.707107  0.707107 -0.707107 )
               b(2) = (  0.707107 -0.707107  0.707107 )
               b(3) = ( -0.707107  0.707107  0.707107 )


     PseudoPot. # 1 for Si read from file:
     ./pseudo/Si.pbe-n-rrkjus_psl.1.0.0.UPF
     MD5 check sum: 0b0bb1205258b0d07b9f9672cf965d36
     Pseudo is Ultrasoft + core correction, Zval =  4.0
     Generated using "atomic" code by A. Dal Corso v.5.1
     Using radial grid of 1141 points,  6 beta functions with:
                l(1) =   0
                l(2) =   0
                l(3) =   1
                l(4) =   1
                l(5) =   2
                l(6) =   2
     Q(r) pseudized with 0 coefficients

...

     The potential is recalculated from file :
     ./out/_ph0/aiida.save/charge-density.dat

     Starting wfcs are    8 atomic wfcs

     Band Structure Calculation
     Davidson diagonalization with overlap

     Computing kpt #:     1
     total cpu time spent up to now is        0.5 secs

     Computing kpt #:     2
     total cpu time spent up to now is        0.6 secs

     Computing kpt #:     3
     total cpu time spent up to now is        0.6 secs

     Computing kpt #:     4
     total cpu time spent up to now is        0.7 secs

     Computing kpt #:     5
     total cpu time spent up to now is        0.7 secs

     Computing kpt #:     6
     total cpu time spent up to now is        0.7 secs

     Computing kpt #:     7
     total cpu time spent up to now is        0.8 secs

     Computing kpt #:     8
     total cpu time spent up to now is        0.8 secs

     ethr =  1.25E-10,  avg # of iterations = 11.2

     total cpu time spent up to now is        0.8 secs

     End of band structure calculation

          k = 0.0000 0.0000 0.0000 (   749 PWs)   bands (ev):

    -5.5147   6.5067   6.5067   6.5067

     occupation numbers
     1.0000   1.0000   1.0000   1.0000

          k = 0.3536-0.3536-0.3536 (   754 PWs)   bands (ev):

    -3.1628  -0.5358   5.2770   5.2770

     occupation numbers
     0.0000   0.0000   0.0000   0.0000

          k = 0.3536-0.3536-0.3536 (   754 PWs)   bands (ev):

    -3.1628  -0.5358   5.2770   5.2770

     occupation numbers
     1.0000   1.0000   1.0000   1.0000

          k = 0.7071-0.7071-0.7071 (   749 PWs)   bands (ev):

    -5.5147   6.5067   6.5067   6.5067

     occupation numbers
     0.0000   0.0000   0.0000   0.0000

          k = 0.0000 0.0000-0.7071 (   740 PWs)   bands (ev):

    -1.3478  -1.3478   3.5863   3.5863

     occupation numbers
     1.0000   1.0000   1.0000   1.0000

          k = 0.3536-0.3536-1.0607 (   754 PWs)   bands (ev):

    -3.1628  -0.5358   5.2770   5.2770

     occupation numbers
     0.0000   0.0000   0.0000   0.0000

          k =-0.3536-0.3536-0.3536 (   754 PWs)   bands (ev):

    -3.1628  -0.5358   5.2770   5.2770

     occupation numbers
     1.0000   1.0000   1.0000   1.0000

          k = 0.0000-0.7071-0.7071 (   740 PWs)   bands (ev):

    -1.3478  -1.3478   3.5863   3.5863

     occupation numbers
     0.0000   0.0000   0.0000   0.0000

     highest occupied level (ev):     6.5067

     Writing output data file aiida.save/



     bravais-lattice index     =            0
     lattice parameter (alat)  =       7.2558  a.u.
     unit-cell volume          =     270.1072 (a.u.)^3
     number of atoms/cell      =            2
     number of atomic types    =            1
     kinetic-energy cut-off    =      30.0000  Ry
     charge density cut-off    =     240.0000  Ry
     convergence threshold     =      1.0E-12
     beta                      =       0.7000
     number of iterations used =            4
     Exchange-correlation      = PBE ( 1  4  3  4 0 0)


     celldm(1)=    7.25577  celldm(2)=    0.00000  celldm(3)=    0.00000
     celldm(4)=    0.00000  celldm(5)=    0.00000  celldm(6)=    0.00000

     crystal axes: (cart. coord. in units of alat)
               a(1) = (  0.7071  0.7071  0.0000 )
               a(2) = (  0.7071  0.0000  0.7071 )
               a(3) = (  0.0000  0.7071  0.7071 )

     reciprocal axes: (cart. coord. in units 2 pi/alat)
               b(1) = (  0.7071  0.7071 -0.7071 )
               b(2) = (  0.7071 -0.7071  0.7071 )
               b(3) = ( -0.7071  0.7071  0.7071 )


     Atoms inside the unit cell:

     Cartesian axes

     site n.  atom      mass           positions (alat units)
        1     Si  28.0855   tau(    1) = (    0.00000    0.00000    0.00000  )
        2     Si  28.0855   tau(    2) = (    0.35355    0.35355    0.35355  )

     Computing dynamical matrix for
                    q = (   0.3535534  -0.3535534  -0.3535534 )
...

     Atomic displacements:
     There are   4 irreducible representations

     Representation     1      1 modes -  To be done
     Irreps are as follows:

                     mode #   1
                     (  -0.40825  -0.00000   )
                     (   0.40825  -0.00000   )
                     (   0.40825  -0.00000   )
                     (   0.40825  -0.00000   )
                     (  -0.40825  -0.00000   )
                     (  -0.40825  -0.00000   )

     Representation     2      1 modes -  To be done
     Irreps are as follows:

                     mode #   2
                     (  -0.40825  -0.00000   )
                     (   0.40825  -0.00000   )
                     (   0.40825  -0.00000   )
                     (  -0.40825   0.00000   )
                     (   0.40825  -0.00000   )
                     (   0.40825  -0.00000   )

     Representation     3      2 modes -  To be done
     Irreps are as follows:

           mode #   3                           mode #   4
           (  -0.52822  -0.00000   )            (  -0.23305  -0.00000   )
           (  -0.46594  -0.00000   )            (   0.34093   0.00000   )
           (  -0.06228  -0.00000   )            (  -0.57398  -0.00000   )
           (   0.52822  -0.00000   )            (   0.23305   0.00000   )
           (   0.46594  -0.00000   )            (  -0.34093  -0.00000   )
           (   0.06228  -0.00000   )            (   0.57398   0.00000   )

     Representation     4      2 modes -  To be done
     Irreps are as follows:

           mode #   5                           mode #   6
           (  -0.52203  -0.00000   )            (  -0.24661  -0.00000   )
           (  -0.47459  -0.00000   )            (   0.32878  -0.00000   )
           (  -0.04744  -0.00000   )            (  -0.57540  -0.00000   )
           (  -0.52203  -0.00000   )            (  -0.24661  -0.00000   )
           (  -0.47459  -0.00000   )            (   0.32878  -0.00000   )
           (  -0.04744  -0.00000   )            (  -0.57540  -0.00000   )



     Alpha used in Ewald sum =   2.5000
     PHONON       :     6.57s CPU         6.72s WALL



     Representation #  1 mode #   1

     Self-consistent Calculation

      iter #   1 total cpu time :     7.1 secs   av.it.:   4.2
      thresh= 1.000E-02 alpha_mix =  0.700 |ddv_scf|^2 =  4.067E-06

     Maximum CPU time exceeded

     max_seconds     =       4.75
     elapsed seconds =       6.21

     PHONON       :     6.97s CPU         7.13s WALL

     INITIALIZATION:
     phq_setup    :      0.17s CPU      0.17s WALL (       2 calls)
     phq_init     :      3.43s CPU      3.48s WALL (       2 calls)

     phq_init     :      3.43s CPU      3.48s WALL (       2 calls)
     set_drhoc    :      1.21s CPU      1.22s WALL (       4 calls)
     init_vloc    :      0.01s CPU      0.01s WALL (       2 calls)
     init_us_1    :      0.67s CPU      0.68s WALL (       2 calls)
     newd         :      0.10s CPU      0.12s WALL (       2 calls)
     dvanqq       :      0.83s CPU      0.84s WALL (       1 calls)
     drho         :      0.70s CPU      0.73s WALL (       1 calls)

     DYNAMICAL MATRIX:
     dynmat0      :      0.72s CPU      0.73s WALL (       1 calls)
     phqscf       :      1.61s CPU      1.67s WALL (       2 calls)
     dynmatrix    :      0.00s CPU      0.00s WALL (       1 calls)

     phqscf       :      1.61s CPU      1.67s WALL (       3 calls)
     solve_linter :      1.45s CPU      1.50s WALL (       2 calls)
     drhodv       :      0.01s CPU      0.01s WALL (       1 calls)

     dynmat0      :      0.72s CPU      0.73s WALL (       1 calls)
     dynmat_us    :      0.07s CPU      0.08s WALL (       1 calls)
     d2ionq       :      0.01s CPU      0.01s WALL (       1 calls)
     dynmatcc     :      0.63s CPU      0.64s WALL (       1 calls)

     dynmat_us    :      0.07s CPU      0.08s WALL (       1 calls)
     addusdynmat  :      0.00s CPU      0.00s WALL (       1 calls)

     phqscf       :      1.61s CPU      1.67s WALL (       4 calls)
     solve_linter :      1.45s CPU      1.50s WALL (       3 calls)

     solve_linter :      1.45s CPU      1.50s WALL (       4 calls)
     dvqpsi_us    :      0.01s CPU      0.01s WALL (       4 calls)
     ortho        :      0.01s CPU      0.01s WALL (      13 calls)
     cgsolve      :      0.36s CPU      0.36s WALL (      13 calls)
     incdrhoscf   :      0.04s CPU      0.04s WALL (      13 calls)
     addusddens   :      0.94s CPU      0.97s WALL (       6 calls)
     vpsifft      :      0.02s CPU      0.02s WALL (       9 calls)
     dv_of_drho   :      0.05s CPU      0.07s WALL (       4 calls)
     mix_pot      :      0.00s CPU      0.00s WALL (       2 calls)
     symdvscf     :      0.24s CPU      0.24s WALL (       2 calls)
     newdq        :      0.30s CPU      0.31s WALL (       2 calls)
     adddvscf     :      0.00s CPU      0.00s WALL (       9 calls)
     drhodvus     :      0.00s CPU      0.00s WALL (       1 calls)

     dvqpsi_us    :      0.01s CPU      0.01s WALL (       4 calls)
     dvqpsi_us_on :      0.00s CPU      0.00s WALL (       4 calls)

     cgsolve      :      0.36s CPU      0.36s WALL (      13 calls)
     ch_psi       :      0.35s CPU      0.35s WALL (     126 calls)

     ch_psi       :      0.35s CPU      0.35s WALL (     126 calls)
     h_psi        :      0.53s CPU      0.53s WALL (     232 calls)
     last         :      0.05s CPU      0.05s WALL (     126 calls)

     h_psi        :      0.53s CPU      0.53s WALL (     232 calls)
     add_vuspsi   :      0.04s CPU      0.04s WALL (     232 calls)

     incdrhoscf   :      0.04s CPU      0.04s WALL (      13 calls)
     addusdbec    :      0.01s CPU      0.01s WALL (      37 calls)

     drhodvus     :      0.00s CPU      0.00s WALL (       1 calls)

      General routines
     calbec       :      0.16s CPU      0.16s WALL (     728 calls)
     fft          :      0.14s CPU      0.15s WALL (     167 calls)
     ffts         :      0.01s CPU      0.01s WALL (      36 calls)
     fftw         :      0.47s CPU      0.47s WALL (    1998 calls)
     davcio       :      0.01s CPU      0.01s WALL (     210 calls)
     write_rec    :      0.00s CPU      0.02s WALL (       3 calls)


     PHONON       :     6.97s CPU         7.13s WALL


   This run was terminated on:  12:13:58   9Aug2019

=------------------------------------------------------------------------------=
   JOB DONE.
=------------------------------------------------------------------------------=
