<UPF version="2.0.1"><PP_HEADER element="Si"/></UPF>
