
     Program PROJWFC v.7.2 starts on 11Oct2025 at 16:43:59 

     This program is part of the open-source Quantum ESPRESSO suite
     for quantum simulation of materials; please cite
         "P. Giannozzi et al., J. Phys.:Condens. Matter 21 395502 (2009);
         "P. Giannozzi et al., J. Phys.:Condens. Matter 29 465901 (2017);
         "P. Giannozzi et al., J. Chem. Phys. 152 154105 (2020);
          URL http://www.quantum-espresso.org", 
     in publications or presentations arising from this work. More details at
     http://www.quantum-espresso.org/quote

     Parallel version (MPI), running on     1 processors

     MPI processes distributed on     1 nodes
     78319 MiB available memory on the printing compute node when the environment starts
 

     Reading xml data from directory:

     ./out/aiida.save/
     file C.pbe-n-kjpaw_psl.1.0.0.UPF: wavefunction(s)  2S 2P renormalized

     IMPORTANT: XC functional enforced from input :
     Exchange-correlation= PBE
                           (   1   4   3   4   0   0   0)
     Any further DFT definition will be discarded
     Please, verify this is what you really want

 
     G-vector sticks info
     --------------------
     sticks:   dense  smooth     PW     G-vecs:    dense   smooth      PW
     Sum         547     265     85                61509    21649    3993
 
     Using Slab Decomposition
 
 ----2D----2D----2D----2D----2D----2D----2D----2D----2D----2D----2D----2D
  The code is running with the 2D cutoff
  Please refer to:
  Sohier, T., Calandra, M., & Mauri, F. (2017), 
  Density functional perturbation theory for gated two-dimensional heterostructu
 res:
  Theoretical developments and application to flexural phonons in graphene.
  Physical Review B, 96(7), 75448. https://doi.org/10.1103/PhysRevB.96.075448
 ----2D----2D----2D----2D----2D----2D----2D----2D----2D----2D----2D----2D

     Check: negative core charge=   -0.000005

     negative rho (up, down):  2.255E-04 0.000E+00

     Gaussian broadening (read from input): ngauss,degauss=  -1    0.005000


     Calling projwave_boxes .... 
 
     Box #  1 : vol   0.821605 % =       4.381696 (a.u.)^3;  0.849530E+00 elec
     Box #  2 : vol   0.821605 % =       4.381696 (a.u.)^3;  0.111692E+00 elec
     Box #  3 : vol   0.821605 % =       4.381696 (a.u.)^3;  0.567566E-02 elec
     Box #  4 : vol   0.821605 % =       4.381696 (a.u.)^3;  0.283461E-03 elec
     Box #  5 : vol   0.821605 % =       4.381696 (a.u.)^3;  0.137830E-04 elec
 
     PROJWFC      :      0.31s CPU      0.59s WALL

 
   This run was terminated on:  16:44: 0  11Oct2025            

=------------------------------------------------------------------------------=
   JOB DONE.
=------------------------------------------------------------------------------=
