
     Program CP v.6.6 starts on  3Nov2020 at 22:10:25 

     This program is part of the open-source Quantum ESPRESSO suite
     for quantum simulation of materials; please cite
         "P. Giannozzi et al., J. Phys.:Condens. Matter 21 395502 (2009);
         "P. Giannozzi et al., J. Phys.:Condens. Matter 29 465901 (2017);
          URL http://www.quantum-espresso.org", 
     in publications or presentations arising from this work. More details at
     http://www.quantum-espresso.org/quote

     Parallel version (MPI), running on     1 processors

     MPI processes distributed on     1 nodes
     Fft bands division:     nmany     =       1
     Reading input from aiida.in

   Job Title: WATER


   Atomic Pseudopotentials Parameters
   ----------------------------------

   Reading pseudopotential for specie #  1 from file :
   ../pseudo/H_HSCV_PBE-1.0.upf
   file type is UPF v.1

   Reading pseudopotential for specie #  2 from file :
   ../pseudo/O_HSCV_PBE-1.0.upf
     Message from routine scan_end:
     No INFO block end statement, possibly corrupted file
   file type is UPF v.1


   Main Simulation Parameters (from input)
   ---------------------------------------
   Restart Mode       =       1   restart        
   Number of MD Steps =      30
   Print out every           10 MD Steps
   Reads from unit    =      51
   Writes to unit     =      52
   MD Simulation time step            =       3.00
   Electronic fictitious mass (emass) =      50.00
   emass cut-off                      =       3.00

   Simulation Cell Parameters (from input)
   external pressure       =            0.00 [KBar]
   wmass (calculated)      =         2493.41 [AU]
   ibrav =    1
   alat  =    10.00000000
   a1    =    10.00000000    0.00000000    0.00000000
   a2    =     0.00000000   10.00000000    0.00000000
   a3    =     0.00000000    0.00000000   10.00000000

   b1    =     0.10000000    0.00000000    0.00000000
   b2    =     0.00000000    0.10000000    0.00000000
   b3    =     0.00000000    0.00000000    0.10000000
   omega =    1000.00000000

   Energy Cut-offs
   ---------------
   Ecutwfc =   80.0 Ry,      Ecutrho =  320.0 Ry,      Ecuts =  320.0 Ry
   Gcutwfc =   14.2     ,    Gcutrho =   28.5          Gcuts =   28.5
   NOTA BENE: refg, mmx =   0.050000  7680
   Eigenvalues calculated without the kinetic term contribution
   Orthog. with lagrange multipliers : eps =   0.10E-08,  max = 300
   Electron dynamics with newton equations
   Electron dynamics : the temperature is not controlled

   Electronic states
   -----------------
   Number of Electrons=     8, of States =     4
   Occupation numbers :
   2.00 2.00 2.00 2.00


   Exchange and correlations functionals
   -------------------------------------
     Exchange-correlation=  SLA  PW   PBX  PBC
                           (   1   4   3   4   0   0   0)


   Ions Simulation Parameters
   --------------------------
   Ions are allowed to move
   Ions dynamics with newton equations
   the temperature is computed for     9 degrees of freedom
   ion dynamics with fricp =  0.0000 and greasp =  1.0000
   Ionic position (from input)
   sorted by specie, and converted to real a.u. coordinates
   Species   1 atoms =    2 mass =      1822.89 (a.u.),         1.00 (amu) rcmax =   0.50 (a.u.)
        0.571642     0.943352     0.965650
       -0.243397    -0.435015    -1.378745
   Species   2 atoms =    1 mass =     29166.22 (a.u.),        16.00 (amu) rcmax =   0.50 (a.u.)
       -0.328246    -0.508525     0.413094
   Ionic position will be re-read from restart file

   All atoms are allowed to move
   Ionic temperature is not controlled


   Cell Dynamics Parameters (from STDIN)
   -------------------------------------
   Starting cell generated from CELLDM
   Cell parameters will be re-read from restart file
   Constant VOLUME Molecular dynamics
   cell parameters are not allowed to move

   Verbosity: iverbosity =  0



   Simulation dimensions initialization
   ------------------------------------

   unit vectors of full simulation cell
   in real space:                         in reciprocal space (units 2pi/alat):
   1    10.0000    0.0000    0.0000              1.0000    0.0000    0.0000
   2     0.0000   10.0000    0.0000              0.0000    1.0000    0.0000
   3     0.0000    0.0000   10.0000              0.0000    0.0000    1.0000

     G-vector sticks info
     --------------------
     sticks:   dense  smooth     PW     G-vecs:    dense   smooth      PW
     Sum        2561    2561    641                96969    96969   12053


   Real Mesh
   ---------
   Global Dimensions   Local  Dimensions   Processor Grid
   .X.   .Y.   .Z.     .X.   .Y.   .Z.     .X.   .Y.   .Z.
    60    60    60      60    60    60       1     1     1
   Array leading dimensions ( nr1x, nr2x, nr3x )   =     60    60    60
   Local number of cell to store the grid ( nrxx ) =     216000
   Number of x-y planes for each processors: 
  |  60,  60  |

   Smooth Real Mesh
   ----------------
   Global Dimensions   Local  Dimensions   Processor Grid
   .X.   .Y.   .Z.     .X.   .Y.   .Z.     .X.   .Y.   .Z.
    60    60    60      60    60    60       1     1     1
   Array leading dimensions ( nr1x, nr2x, nr3x )   =     60    60    60
   Local number of cell to store the grid ( nrxx ) =     216000
   Number of x-y planes for each processors: 
  |  60,  60  |

   Reciprocal Space Mesh
   ---------------------
   Large Mesh
     Global(ngm_g)    MinLocal       MaxLocal      Average
          48485          48485          48485       48485.00
   Smooth Mesh
     Global(ngms_g)   MinLocal       MaxLocal      Average
          48485          48485          48485       48485.00
   Wave function Mesh
     Global(ngw_g)    MinLocal       MaxLocal      Average
           6027           6027           6027        6027.00


   System geometry initialization
   ------------------------------
   cell parameters read from restart file
   ibrav =    1       cell parameters 


   cell at current step : h(t)
      10.00000       0.00000       0.00000
       0.00000      10.00000       0.00000
       0.00000       0.00000      10.00000

   cell at previous step : h(t-dt)
      10.00000       0.00000       0.00000
       0.00000      10.00000       0.00000
       0.00000       0.00000      10.00000


   Matrix Multiplication Performances
   ortho mmul, time for parallel driver      =   0.00000 with    1 procs

   Constraints matrixes will be distributed block like on
   ortho sub-group =    1*   1 procs



   Pseudopotentials initialization
   -------------------------------


   Common initialization

   Specie:     1

                        dion 

   Specie:     2
   1  indv=  1   ang. mom=  0

                        dion 
   0.2201

   Cell parameters from input file are used in electron mass preconditioning
   init_tpiba2=    0.39478418

   Short Legend and Physical Units in the Output
   ---------------------------------------------
   NFI    [int]          - step index
   EKINC  [HARTREE A.U.] - kinetic energy of the fictitious electronic dynamics
   TEMPH  [K]            - Temperature of the fictitious cell dynamics
   TEMP   [K]            - Ionic temperature
   ETOT   [HARTREE A.U.] - Scf total energy (Kohn-Sham hamiltonian)
   ENTHAL [HARTREE A.U.] - Enthalpy ( ETOT + P * V )
   ECONS  [HARTREE A.U.] - Enthalpy + kinetic energy of ions and cell
   ECONT  [HARTREE A.U.] - Constant of motion for the CP lagrangian


   formf: eself=    30.31961
   formf:     vps(g=0)=  -0.0007957     rhops(g=0)=  -0.0010000
   formf:     vps(g=0)=  -0.0007862     rhops(g=0)=  -0.0009756
   formf:     vps(g=0)=  -0.0007862     rhops(g=0)=  -0.0009756
   formf:     vps(g=0)=  -0.0007862     rhops(g=0)=  -0.0009756
   formf:     vps(g=0)=  -0.0007776     rhops(g=0)=  -0.0009518
   formf: sum_g vps(g)=  -1.7264663 sum_g rhops(g)=  -0.7188485
   formf:     vps(g=0)=  -0.0037910     rhops(g=0)=  -0.0060000
   formf:     vps(g=0)=  -0.0037674     rhops(g=0)=  -0.0058538
   formf:     vps(g=0)=  -0.0037674     rhops(g=0)=  -0.0058538
   formf:     vps(g=0)=  -0.0037674     rhops(g=0)=  -0.0058538
   formf:     vps(g=0)=  -0.0037505     rhops(g=0)=  -0.0057111
   formf: sum_g vps(g)=  -2.9647389 sum_g rhops(g)=  -4.3130909
   Delta V(G=0):   0.006278Ry,    0.170835eV

  nfi     ekinc              temph  tempp     etot                 enthal               econs                econt              vnhh    xnhh0   vnhp    xnhp0
     31    0.000192136113548    0.0  157.04     -17.171998741366     -17.171998741366     -17.169760866746     -17.169568730633   0.0000   0.0000   0.0000   0.0000
     32    0.000109269798382    0.0  160.56     -17.171964505806     -17.171964505806     -17.169676427840     -17.169567158042   0.0000   0.0000   0.0000   0.0000
     33    0.000101620866049    0.0  163.89     -17.172019075777     -17.172019075777     -17.169683515585     -17.169581894719   0.0000   0.0000   0.0000   0.0000
     34    0.000111763839884    0.0  165.48     -17.172059311054     -17.172059311054     -17.169701141310     -17.169589377470   0.0000   0.0000   0.0000   0.0000
     35    0.000102076195248    0.0  165.01     -17.172033450537     -17.172033450537     -17.169681957680     -17.169579881485   0.0000   0.0000   0.0000   0.0000
     36    0.000112153273737    0.0  163.45     -17.172011316977     -17.172011316977     -17.169682074490     -17.169569921216   0.0000   0.0000   0.0000   0.0000
     37    0.000176590926750    0.0  162.39     -17.172065601175     -17.172065601175     -17.169751468313     -17.169574877386   0.0000   0.0000   0.0000   0.0000
     38    0.000248453021098    0.0  163.22     -17.172160398994     -17.172160398994     -17.169834422319     -17.169585969298   0.0000   0.0000   0.0000   0.0000
     39    0.000254530852740    0.0  166.59     -17.172213861481     -17.172213861481     -17.169839836420     -17.169585305567   0.0000   0.0000   0.0000   0.0000
     40    0.000197979355745    0.0  172.31     -17.172227500581     -17.172227500581     -17.169772008542     -17.169574029186   0.0000   0.0000   0.0000   0.0000
     41    0.000151251039124    0.0  179.53     -17.172279625687     -17.172279625687     -17.169721211552     -17.169569960513   0.0000   0.0000   0.0000   0.0000
     42    0.000152391799750    0.0  187.15     -17.172398714037     -17.172398714037     -17.169731674817     -17.169579283017   0.0000   0.0000   0.0000   0.0000
     43    0.000163598778951    0.0  194.27     -17.172519063343     -17.172519063343     -17.169750539251     -17.169586940472   0.0000   0.0000   0.0000   0.0000
     44    0.000148220902032    0.0  200.59     -17.172587555180     -17.172587555180     -17.169729076194     -17.169580855292   0.0000   0.0000   0.0000   0.0000
     45    0.000135467290109    0.0  206.45     -17.172648911516     -17.172648911516     -17.169706795141     -17.169571327851   0.0000   0.0000   0.0000   0.0000
     46    0.000167389091014    0.0  212.63     -17.172771699014     -17.172771699014     -17.169741578222     -17.169574189131   0.0000   0.0000   0.0000   0.0000
     47    0.000218242467267    0.0  219.79     -17.172935327250     -17.172935327250     -17.169803172889     -17.169584930422   0.0000   0.0000   0.0000   0.0000
     48    0.000224019987186    0.0  228.21     -17.173062159681     -17.173062159681     -17.169810007073     -17.169585987086   0.0000   0.0000   0.0000   0.0000
     49    0.000180009761330    0.0  237.70     -17.173142800999     -17.173142800999     -17.169755417707     -17.169575407946   0.0000   0.0000   0.0000   0.0000
     50    0.000150184441021    0.0  247.75     -17.173250779420     -17.173250779420     -17.169720234186     -17.169570049745   0.0000   0.0000   0.0000   0.0000
     51    0.000171537752833    0.0  257.76     -17.173423281418     -17.173423281418     -17.169749963664     -17.169578425911   0.0000   0.0000   0.0000   0.0000
     52    0.000203171673652    0.0  267.36     -17.173600528752     -17.173600528752     -17.169790483902     -17.169587312228   0.0000   0.0000   0.0000   0.0000
     53    0.000196266410111    0.0  276.49     -17.173719491195     -17.173719491195     -17.169779336894     -17.169583070484   0.0000   0.0000   0.0000   0.0000
     54    0.000170112713111    0.0  285.45     -17.173810855112     -17.173810855112     -17.169743012828     -17.169572900115   0.0000   0.0000   0.0000   0.0000
     55    0.000176111230584    0.0  294.64     -17.173947697791     -17.173947697791     -17.169748860811     -17.169572749580   0.0000   0.0000   0.0000   0.0000
     56    0.000212469852209    0.0  304.28     -17.174131140361     -17.174131140361     -17.169794890481     -17.169582420628   0.0000   0.0000   0.0000   0.0000
     57    0.000225860836762    0.0  314.26     -17.174291033452     -17.174291033452     -17.169812666756     -17.169586805920   0.0000   0.0000   0.0000   0.0000
     58    0.000194774797323    0.0  324.17     -17.174394033913     -17.174394033913     -17.169774397328     -17.169579622531   0.0000   0.0000   0.0000   0.0000
     59    0.000163805451854    0.0  333.58     -17.174489700983     -17.174489700983     -17.169735967717     -17.169572162265   0.0000   0.0000   0.0000   0.0000

 * Physical Quantities at step:    60


                total energy =      -17.17463062055 Hartree a.u.
              kinetic energy =       12.58488 Hartree a.u.
        electrostatic energy =      -23.43240 Hartree a.u.
                         esr =        0.00151 Hartree a.u.
                       eself =       30.31961 Hartree a.u.
      pseudopotential energy =       -4.06369 Hartree a.u.
  n-l pseudopotential energy =        1.95141 Hartree a.u.
 exchange-correlation energy =       -4.21483 Hartree a.u.
           average potential =        0.00000 Hartree a.u.



   Eigenvalues (eV), kp =   1 , spin =  1

  -24.25  -12.55   -8.17   -6.38


   CELL_PARAMETERS
   10.00000000    0.00000000    0.00000000
    0.00000000   10.00000000    0.00000000
    0.00000000    0.00000000   10.00000000

   System Density [g/cm^3] :              0.2017098000


   System Volume [A.U.^3] :           1000.0000000000


   Center of mass square displacement (a.u.):   0.000000

   ATOMIC_POSITIONS
   H       0.59455154338114E+00     0.94823974259138E+00     0.11444339524483E+01
   H      -0.62795543071568E+00    -0.26479550933008E+00    -0.13652114936866E+01
   O      -0.30564246954162E+00    -0.51946973145379E+00     0.40107450257743E+00

   ATOMIC_VELOCITIES
   H      -0.59408922865524E-03    -0.76924082089529E-03    -0.10227831889684E-02
   H      -0.71632244915537E-03     0.14250853886425E-02     0.82400942850896E-03
   O       0.81900729863154E-04    -0.40990285484210E-04     0.12423360028734E-04



   Partial temperatures (for each ionic specie) 
   Species  Temp (K)   Mean Square Displacement (a.u.)
        1   5.00E+02     1.0478E-01
        2   2.62E+01     7.7515E-04
     60    0.000178746855276    0.0  342.20     -17.174630620553     -17.174630620553     -17.169754017403     -17.169575270547   0.0000   0.0000   0.0000   0.0000

   writing restart file (with schema): ./out/cp_52.save/
     restart      :      0.01s CPU      0.01s WALL (       1 calls)


   Averaged Physical Quantities
                      accumulated      this run
   ekinc         :        0.00012       0.00017 (AU)
   ekin          :       12.55899      12.52811 (AU)
   epot          :      -31.68852     -31.65897 (AU)
   total energy  :      -17.17332     -17.17296 (AU)
   temperature   :      239.68374     225.14001 (K )
   enthalpy      :      -11.73475     -17.17296 (AU)
   econs         :      -17.16985     -17.16975 (AU)
   pressure      :        0.00000       0.00000 (Gpa)
   volume        :     1000.00000    1000.00000 (AU)



     Called by MAIN_LOOP:
     initialize   :      0.71s CPU      0.72s WALL (       1 calls)
     main_loop    :      4.59s CPU      5.05s WALL (      30 calls)
     cpr_total    :      4.60s CPU      5.06s WALL (       1 calls)

     Called by INIT_RUN:
     init_readfil :      0.02s CPU      0.02s WALL (       1 calls)

     Called by CPR:
     cpr_md       :      4.60s CPU      5.06s WALL (      30 calls)
     move_electro :      4.52s CPU      4.98s WALL (      30 calls)

     Called by move_electrons:
     rhoofr       :      0.62s CPU      0.65s WALL (      30 calls)
     vofrho       :      3.55s CPU      3.97s WALL (      30 calls)
     dforce       :      0.33s CPU      0.33s WALL (      60 calls)
     calphi       :      0.00s CPU      0.00s WALL (      30 calls)
     nlfl         :      0.00s CPU      0.00s WALL (      30 calls)

     Called by ortho:
     ortho_iter   :      0.00s CPU      0.00s WALL (      30 calls)
     rsg          :      0.00s CPU      0.00s WALL (      30 calls)
     rhoset       :      0.01s CPU      0.01s WALL (      30 calls)
     sigset       :      0.01s CPU      0.01s WALL (      30 calls)
     tauset       :      0.01s CPU      0.01s WALL (      30 calls)
     ortho        :      0.03s CPU      0.03s WALL (      30 calls)
     updatc       :      0.00s CPU      0.00s WALL (      30 calls)

     Small boxes:

     Low-level routines:
     prefor       :      0.00s CPU      0.00s WALL (      61 calls)
     nlfq         :      0.01s CPU      0.01s WALL (      30 calls)
     nlsm1        :      0.00s CPU      0.00s WALL (      31 calls)
     nlsm2        :      0.01s CPU      0.01s WALL (      30 calls)
     fft          :      1.30s CPU      1.35s WALL (     241 calls)
     ffts         :      0.28s CPU      0.28s WALL (      60 calls)
     fftw         :      0.47s CPU      0.49s WALL (     180 calls)
     betagx       :      0.14s CPU      0.14s WALL (       1 calls)
     qradx        :      0.00s CPU      0.00s WALL (       1 calls)
     nlinit       :      0.66s CPU      0.67s WALL (       1 calls)
     init_dim     :      0.02s CPU      0.02s WALL (       1 calls)
     newnlinit    :      0.00s CPU      0.00s WALL (       1 calls)
     from_restart :      0.01s CPU      0.01s WALL (       1 calls)
     strucf       :      0.02s CPU      0.02s WALL (      31 calls)
     calbec       :      0.00s CPU      0.00s WALL (      31 calls)


     CP           :      5.36s CPU      5.84s WALL


   This run was terminated on:  22:10:30   3Nov2020            

=------------------------------------------------------------------------------=
   JOB DONE.
=------------------------------------------------------------------------------=
