
     Program PROJWFC v.6.5 starts on 15Sep2020 at  9:21: 6 

     This program is part of the open-source Quantum ESPRESSO suite
     for quantum simulation of materials; please cite
         "P. Giannozzi et al., J. Phys.:Condens. Matter 21 395502 (2009);
         "P. Giannozzi et al., J. Phys.:Condens. Matter 29 465901 (2017);
          URL http://www.quantum-espresso.org", 
     in publications or presentations arising from this work. More details at
     http://www.quantum-espresso.org/quote

     Parallel version (MPI), running on     1 processors

     MPI processes distributed on     1 nodes

     Reading xml data from directory:

     ./out/aiida.save/

     IMPORTANT: XC functional enforced from input :
     Exchange-correlation= PBE
                           (   1   4   3   4   0   0   0)
     Any further DFT definition will be discarded
     Please, verify this is what you really want

               file Fe.rel-pbe-kjpaw.UPF: wavefunction(s)  3D renormalized
 
     G-vector sticks info
     --------------------
     sticks:   dense  smooth     PW     G-vecs:    dense   smooth      PW
     Sum         333     169     43                 3805     1409     177
 

     Gaussian broadening (read from input): ngauss,degauss=   0    0.020000


     Calling projwave .... 
 
  Problem Sizes 
  natomwfc =            18
  nbnd     =            16
  nkstot   =             1
  npwx     =           177
  nkb      =            34
 

     Atomic states used for projection
     (read from pseudopotential files):

     state #   1: atom   1 (Fe ), wfc  1 (l=0 j=0.5 m_j=-0.5)
     state #   2: atom   1 (Fe ), wfc  1 (l=0 j=0.5 m_j= 0.5)
     state #   3: atom   1 (Fe ), wfc  2 (l=1 j=0.5 m_j=-0.5)
     state #   4: atom   1 (Fe ), wfc  2 (l=1 j=0.5 m_j= 0.5)
     state #   5: atom   1 (Fe ), wfc  3 (l=1 j=1.5 m_j=-1.5)
     state #   6: atom   1 (Fe ), wfc  3 (l=1 j=1.5 m_j=-0.5)
     state #   7: atom   1 (Fe ), wfc  3 (l=1 j=1.5 m_j= 0.5)
     state #   8: atom   1 (Fe ), wfc  3 (l=1 j=1.5 m_j= 1.5)
     state #   9: atom   1 (Fe ), wfc  4 (l=2 j=1.5 m_j=-1.5)
     state #  10: atom   1 (Fe ), wfc  4 (l=2 j=1.5 m_j=-0.5)
     state #  11: atom   1 (Fe ), wfc  4 (l=2 j=1.5 m_j= 0.5)
     state #  12: atom   1 (Fe ), wfc  4 (l=2 j=1.5 m_j= 1.5)
     state #  13: atom   1 (Fe ), wfc  5 (l=2 j=2.5 m_j=-2.5)
     state #  14: atom   1 (Fe ), wfc  5 (l=2 j=2.5 m_j=-1.5)
     state #  15: atom   1 (Fe ), wfc  5 (l=2 j=2.5 m_j=-0.5)
     state #  16: atom   1 (Fe ), wfc  5 (l=2 j=2.5 m_j= 0.5)
     state #  17: atom   1 (Fe ), wfc  5 (l=2 j=2.5 m_j= 1.5)
     state #  18: atom   1 (Fe ), wfc  5 (l=2 j=2.5 m_j= 2.5)

 k =   0.0000000000  0.0000000000  0.0000000000
==== e(   1) =     3.88313 eV ==== 
     psi = 0.998*[#   2]
    |psi|^2 = 0.998
==== e(   2) =     4.86978 eV ==== 
     psi = 0.997*[#   1]
    |psi|^2 = 0.997
==== e(   3) =     9.68806 eV ==== 
     psi = 0.612*[#  10]+0.388*[#  15]
    |psi|^2 = 1.000
==== e(   4) =     9.71075 eV ==== 
     psi = 0.457*[#   9]+0.438*[#  18]+0.104*[#  14]
    |psi|^2 = 1.000
==== e(   5) =     9.74758 eV ==== 
     psi = 0.789*[#  17]+0.211*[#  12]
    |psi|^2 = 1.000
==== e(   6) =    10.73370 eV ==== 
     psi = 0.562*[#  16]+0.437*[#  11]
    |psi|^2 = 1.000
==== e(   7) =    10.73828 eV ==== 
     psi = 0.562*[#  18]+0.361*[#   9]+0.077*[#  14]
    |psi|^2 = 1.000
==== e(   8) =    12.96060 eV ==== 
     psi = 0.562*[#  11]+0.437*[#  16]
    |psi|^2 = 0.999
==== e(   9) =    12.98680 eV ==== 
     psi = 0.473*[#  13]+0.413*[#  12]+0.113*[#  17]
    |psi|^2 = 0.999
==== e(  10) =    13.01548 eV ==== 
     psi = 0.818*[#  14]+0.181*[#   9]
    |psi|^2 = 0.999
==== e(  11) =    15.23178 eV ==== 
     psi = 0.526*[#  13]+0.375*[#  12]+0.098*[#  17]
    |psi|^2 = 0.999
==== e(  12) =    15.23243 eV ==== 
     psi = 0.611*[#  15]+0.388*[#  10]
    |psi|^2 = 0.999
==== e(  13) =    36.96188 eV ==== 
 
    |psi|^2 = 0.000
==== e(  14) =    36.96188 eV ==== 
 
    |psi|^2 = 0.000
==== e(  15) =    36.96235 eV ==== 
 
    |psi|^2 = 0.000
==== e(  16) =    37.22160 eV ==== 
 
    |psi|^2 = 0.000

Lowdin Charges: 

     Atom #   1: total charge =   7.9931, s =  1.9952, 
     Atom #   1: total charge =   7.9931, p =  0.0000, 
     Atom #   1: total charge =   7.9931, d =  5.9980, 
     Spilling Parameter:   0.0009
 
     PROJWFC      :      7.30s CPU      8.10s WALL

 
   This run was terminated on:   9:21:14  15Sep2020            

=------------------------------------------------------------------------------=
   JOB DONE.
=------------------------------------------------------------------------------=
