
     Program PROJWFC v.6.6 starts on  3Oct2021 at 13:49:22 

     This program is part of the open-source Quantum ESPRESSO suite
     for quantum simulation of materials; please cite
         "P. Giannozzi et al., J. Phys.:Condens. Matter 21 395502 (2009);
         "P. Giannozzi et al., J. Phys.:Condens. Matter 29 465901 (2017);
          URL http://www.quantum-espresso.org", 
     in publications or presentations arising from this work. More details at
     http://www.quantum-espresso.org/quote

     Parallel version (MPI), running on     1 processors

     MPI processes distributed on     1 nodes
     Fft bands division:     nmany     =       1

     Reading xml data from directory:

     ./out/aiida.save/
     file Fe.pbe-spn-kjpaw_psl.0.2.1.UPF: wavefunction(s)  3D renormalized

     IMPORTANT: XC functional enforced from input :
     Exchange-correlation= PBE
                           (   1   4   3   4   0   0   0)
     Any further DFT definition will be discarded
     Please, verify this is what you really want


     G-vector sticks info
     --------------------
     sticks:   dense  smooth     PW     G-vecs:    dense   smooth      PW
     Sum        2453     829    233                91965    17773    2601


     Check: negative core charge=   -0.000010

     Linear tetrahedron method (read from file) 
     [opt_tetra]  Linear tetrahedron method is used.

     Calling projwave .... 

  Problem Sizes 
  natomwfc =           52
  nbnd     =           40
  nkstot   =            2
  npwx     =         2240
  nkb      =           36


     Atomic states used for projection
     (read from pseudopotential files):

     state #   1: atom   1 (Fe ), wfc  1 (l=0 j=0.5 m_j=-0.5)
     state #   2: atom   1 (Fe ), wfc  1 (l=0 j=0.5 m_j= 0.5)
     state #   3: atom   1 (Fe ), wfc  2 (l=0 j=0.5 m_j=-0.5)
     state #   4: atom   1 (Fe ), wfc  2 (l=0 j=0.5 m_j= 0.5)
     state #   5: atom   1 (Fe ), wfc  3 (l=1 j=0.5 m_j=-0.5)
     state #   6: atom   1 (Fe ), wfc  3 (l=1 j=0.5 m_j= 0.5)
     state #   7: atom   1 (Fe ), wfc  4 (l=1 j=1.5 m_j=-1.5)
     state #   8: atom   1 (Fe ), wfc  4 (l=1 j=1.5 m_j=-0.5)
     state #   9: atom   1 (Fe ), wfc  4 (l=1 j=1.5 m_j= 0.5)
     state #  10: atom   1 (Fe ), wfc  4 (l=1 j=1.5 m_j= 1.5)
     state #  11: atom   1 (Fe ), wfc  5 (l=1 j=0.5 m_j=-0.5)
     state #  12: atom   1 (Fe ), wfc  5 (l=1 j=0.5 m_j= 0.5)
     state #  13: atom   1 (Fe ), wfc  6 (l=1 j=1.5 m_j=-1.5)
     state #  14: atom   1 (Fe ), wfc  6 (l=1 j=1.5 m_j=-0.5)
     state #  15: atom   1 (Fe ), wfc  6 (l=1 j=1.5 m_j= 0.5)
     state #  16: atom   1 (Fe ), wfc  6 (l=1 j=1.5 m_j= 1.5)
     state #  17: atom   1 (Fe ), wfc  7 (l=2 j=1.5 m_j=-1.5)
     state #  18: atom   1 (Fe ), wfc  7 (l=2 j=1.5 m_j=-0.5)
     state #  19: atom   1 (Fe ), wfc  7 (l=2 j=1.5 m_j= 0.5)
     state #  20: atom   1 (Fe ), wfc  7 (l=2 j=1.5 m_j= 1.5)
     state #  21: atom   1 (Fe ), wfc  8 (l=2 j=2.5 m_j=-2.5)
     state #  22: atom   1 (Fe ), wfc  8 (l=2 j=2.5 m_j=-1.5)
     state #  23: atom   1 (Fe ), wfc  8 (l=2 j=2.5 m_j=-0.5)
     state #  24: atom   1 (Fe ), wfc  8 (l=2 j=2.5 m_j= 0.5)
     state #  25: atom   1 (Fe ), wfc  8 (l=2 j=2.5 m_j= 1.5)
     state #  26: atom   1 (Fe ), wfc  8 (l=2 j=2.5 m_j= 2.5)
     state #  27: atom   2 (Fe ), wfc  1 (l=0 j=0.5 m_j=-0.5)
     state #  28: atom   2 (Fe ), wfc  1 (l=0 j=0.5 m_j= 0.5)
     state #  29: atom   2 (Fe ), wfc  2 (l=0 j=0.5 m_j=-0.5)
     state #  30: atom   2 (Fe ), wfc  2 (l=0 j=0.5 m_j= 0.5)
     state #  31: atom   2 (Fe ), wfc  3 (l=1 j=0.5 m_j=-0.5)
     state #  32: atom   2 (Fe ), wfc  3 (l=1 j=0.5 m_j= 0.5)
     state #  33: atom   2 (Fe ), wfc  4 (l=1 j=1.5 m_j=-1.5)
     state #  34: atom   2 (Fe ), wfc  4 (l=1 j=1.5 m_j=-0.5)
     state #  35: atom   2 (Fe ), wfc  4 (l=1 j=1.5 m_j= 0.5)
     state #  36: atom   2 (Fe ), wfc  4 (l=1 j=1.5 m_j= 1.5)
     state #  37: atom   2 (Fe ), wfc  5 (l=1 j=0.5 m_j=-0.5)
     state #  38: atom   2 (Fe ), wfc  5 (l=1 j=0.5 m_j= 0.5)
     state #  39: atom   2 (Fe ), wfc  6 (l=1 j=1.5 m_j=-1.5)
     state #  40: atom   2 (Fe ), wfc  6 (l=1 j=1.5 m_j=-0.5)
     state #  41: atom   2 (Fe ), wfc  6 (l=1 j=1.5 m_j= 0.5)
     state #  42: atom   2 (Fe ), wfc  6 (l=1 j=1.5 m_j= 1.5)
     state #  43: atom   2 (Fe ), wfc  7 (l=2 j=1.5 m_j=-1.5)
     state #  44: atom   2 (Fe ), wfc  7 (l=2 j=1.5 m_j=-0.5)
     state #  45: atom   2 (Fe ), wfc  7 (l=2 j=1.5 m_j= 0.5)
     state #  46: atom   2 (Fe ), wfc  7 (l=2 j=1.5 m_j= 1.5)
     state #  47: atom   2 (Fe ), wfc  8 (l=2 j=2.5 m_j=-2.5)
     state #  48: atom   2 (Fe ), wfc  8 (l=2 j=2.5 m_j=-1.5)
     state #  49: atom   2 (Fe ), wfc  8 (l=2 j=2.5 m_j=-0.5)
     state #  50: atom   2 (Fe ), wfc  8 (l=2 j=2.5 m_j= 0.5)
     state #  51: atom   2 (Fe ), wfc  8 (l=2 j=2.5 m_j= 1.5)
     state #  52: atom   2 (Fe ), wfc  8 (l=2 j=2.5 m_j= 2.5)

 k =   0.0000000000  0.0000000000  0.0000000000
==== e(   1) =   -68.36512 eV ==== 
     psi = 0.226*[#   1]+0.226*[#   2]+0.225*[#  27]+0.225*[#  28]+0.025*[#   3]
          +0.025*[#   4]+0.025*[#  29]+0.025*[#  30]
    |psi|^2 = 1.000
==== e(   2) =   -68.21967 eV ==== 
     psi = 0.234*[#  27]+0.234*[#  28]+0.233*[#   1]+0.233*[#   2]+0.017*[#   3]
          +0.017*[#   4]+0.016*[#  29]+0.016*[#  30]
    |psi|^2 = 1.000
==== e(   3) =   -64.93267 eV ==== 
     psi = 0.225*[#   1]+0.225*[#   2]+0.224*[#  27]+0.224*[#  28]+0.025*[#   3]
          +0.025*[#   4]+0.025*[#  29]+0.025*[#  30]
    |psi|^2 = 1.000
==== e(   4) =   -64.77210 eV ==== 
     psi = 0.234*[#  27]+0.234*[#  28]+0.234*[#   1]+0.234*[#   2]+0.016*[#   3]
          +0.016*[#   4]+0.016*[#  29]+0.016*[#  30]
    |psi|^2 = 1.000
==== e(   5) =   -34.55293 eV ==== 
     psi = 0.144*[#   8]+0.144*[#   9]+0.144*[#  34]+0.144*[#  35]+0.104*[#   5]
          +0.104*[#   6]+0.104*[#  31]+0.104*[#  32]+0.002*[#   7]+0.002*[#  10]
          +0.002*[#  33]+0.002*[#  36]
    |psi|^2 = 1.000
==== e(   6) =   -34.55293 eV ==== 
     psi = 0.123*[#   7]+0.123*[#  10]+0.123*[#  33]+0.123*[#  36]+0.065*[#   8]
          +0.065*[#   9]+0.064*[#  34]+0.064*[#  35]+0.062*[#   5]+0.062*[#   6]
          +0.062*[#  31]+0.062*[#  32]
    |psi|^2 = 1.000
==== e(   7) =   -34.55281 eV ==== 
     psi = 0.125*[#   7]+0.125*[#  10]+0.125*[#  33]+0.125*[#  36]+0.083*[#   5]
          +0.083*[#   6]+0.083*[#  31]+0.083*[#  32]+0.042*[#   8]+0.042*[#   9]
          +0.042*[#  34]+0.042*[#  35]
    |psi|^2 = 1.000
==== e(   8) =   -34.23548 eV ==== 
     psi = 0.137*[#  34]+0.137*[#  35]+0.137*[#   8]+0.137*[#   9]+0.105*[#  31]
          +0.105*[#  32]+0.105*[#   5]+0.105*[#   6]+0.003*[#  14]+0.003*[#  15]
          +0.003*[#  40]+0.003*[#  41]+0.003*[#   7]+0.003*[#  10]+0.003*[#  33]
          +0.003*[#  36]+0.002*[#  11]+0.002*[#  12]+0.002*[#  37]+0.002*[#  38]
          
    |psi|^2 = 1.000
==== e(   9) =   -34.23548 eV ==== 
     psi = 0.120*[#  33]+0.120*[#  36]+0.120*[#   7]+0.120*[#  10]+0.067*[#  34]
          +0.067*[#  35]+0.067*[#   8]+0.067*[#   9]+0.058*[#  31]+0.058*[#  32]
          +0.058*[#   5]+0.058*[#   6]+0.003*[#  13]+0.003*[#  16]+0.003*[#  39]
          +0.003*[#  42]+0.001*[#  14]+0.001*[#  15]+0.001*[#  40]+0.001*[#  41]
          +0.001*[#  11]+0.001*[#  12]+0.001*[#  37]+0.001*[#  38]
    |psi|^2 = 1.000
==== e(  10) =   -34.23535 eV ==== 
     psi = 0.122*[#  33]+0.122*[#  36]+0.122*[#   7]+0.122*[#  10]+0.082*[#  31]
          +0.082*[#  32]+0.081*[#   5]+0.081*[#   6]+0.041*[#   8]+0.041*[#   9]
          +0.041*[#  34]+0.041*[#  35]+0.003*[#  13]+0.003*[#  16]+0.003*[#  39]
          +0.003*[#  42]+0.002*[#  11]+0.002*[#  12]+0.002*[#  37]+0.002*[#  38]
          
    |psi|^2 = 1.000
==== e(  11) =   -31.21981 eV ==== 
     psi = 0.168*[#   8]+0.168*[#   9]+0.168*[#  34]+0.168*[#  35]+0.082*[#   5]
          +0.082*[#   6]+0.082*[#  31]+0.082*[#  32]
    |psi|^2 = 1.000
==== e(  12) =   -31.21981 eV ==== 
     psi = 0.125*[#   7]+0.125*[#  10]+0.125*[#  33]+0.125*[#  36]+0.085*[#   5]
          +0.085*[#   6]+0.084*[#  31]+0.084*[#  32]+0.041*[#   8]+0.041*[#   9]
          +0.040*[#  34]+0.040*[#  35]
    |psi|^2 = 1.000
==== e(  13) =   -31.21974 eV ==== 
     psi = 0.125*[#   7]+0.125*[#  10]+0.125*[#  33]+0.125*[#  36]+0.083*[#   5]
          +0.083*[#   6]+0.083*[#  31]+0.083*[#  32]+0.042*[#   8]+0.042*[#   9]
          +0.042*[#  34]+0.042*[#  35]
    |psi|^2 = 1.000
==== e(  14) =   -30.86630 eV ==== 
     psi = 0.164*[#  34]+0.164*[#  35]+0.164*[#   8]+0.164*[#   9]+0.081*[#  31]
          +0.081*[#  32]+0.081*[#   5]+0.081*[#   6]+0.003*[#  14]+0.003*[#  15]
          +0.003*[#  40]+0.003*[#  41]+0.002*[#  11]+0.002*[#  12]+0.002*[#  37]
          +0.002*[#  38]
    |psi|^2 = 1.000
==== e(  15) =   -30.86630 eV ==== 
     psi = 0.123*[#  33]+0.123*[#  36]+0.122*[#   7]+0.122*[#  10]+0.083*[#  31]
          +0.083*[#  32]+0.083*[#   5]+0.083*[#   6]+0.040*[#   8]+0.040*[#   9]
          +0.040*[#  34]+0.040*[#  35]+0.002*[#  13]+0.002*[#  16]+0.002*[#  39]
          +0.002*[#  42]+0.002*[#  11]+0.002*[#  12]+0.002*[#  37]+0.002*[#  38]
          
    |psi|^2 = 1.000
==== e(  16) =   -30.86623 eV ==== 
     psi = 0.123*[#  33]+0.123*[#  36]+0.122*[#   7]+0.122*[#  10]+0.082*[#  31]
          +0.082*[#  32]+0.082*[#   5]+0.082*[#   6]+0.041*[#   8]+0.041*[#   9]
          +0.041*[#  34]+0.041*[#  35]+0.002*[#  13]+0.002*[#  16]+0.002*[#  39]
          +0.002*[#  42]+0.002*[#  11]+0.002*[#  12]+0.002*[#  37]+0.002*[#  38]
          
    |psi|^2 = 1.000
==== e(  17) =     9.68385 eV ==== 
     psi = 0.225*[#   3]+0.225*[#   4]+0.225*[#  29]+0.225*[#  30]+0.025*[#   1]
          +0.025*[#   2]+0.025*[#  27]+0.025*[#  28]
    |psi|^2 = 0.998
==== e(  18) =    10.15863 eV ==== 
     psi = 0.224*[#   3]+0.224*[#   4]+0.224*[#  29]+0.224*[#  30]+0.025*[#   1]
          +0.025*[#   2]+0.025*[#  27]+0.025*[#  28]
    |psi|^2 = 0.999
==== e(  19) =    14.21741 eV ==== 
     psi = 0.111*[#  23]+0.111*[#  24]+0.111*[#  49]+0.111*[#  50]+0.074*[#  18]
          +0.074*[#  19]+0.074*[#  44]+0.074*[#  45]+0.031*[#  21]+0.031*[#  26]
          +0.031*[#  47]+0.031*[#  52]+0.024*[#  17]+0.024*[#  20]+0.024*[#  43]
          +0.024*[#  46]+0.006*[#  22]+0.006*[#  25]+0.006*[#  48]+0.006*[#  51]
          
    |psi|^2 = 0.985
==== e(  20) =    14.21748 eV ==== 
     psi = 0.093*[#  21]+0.093*[#  26]+0.093*[#  47]+0.093*[#  52]+0.074*[#  17]
          +0.074*[#  20]+0.074*[#  43]+0.074*[#  46]+0.037*[#  23]+0.037*[#  24]
          +0.037*[#  49]+0.037*[#  50]+0.024*[#  18]+0.024*[#  19]+0.024*[#  44]
          +0.024*[#  45]+0.019*[#  22]+0.019*[#  25]+0.019*[#  48]+0.019*[#  51]
          
    |psi|^2 = 0.985
==== e(  21) =    16.03329 eV ==== 
     psi = 0.108*[#  23]+0.108*[#  24]+0.108*[#  49]+0.108*[#  50]+0.072*[#  18]
          +0.072*[#  19]+0.072*[#  44]+0.072*[#  45]+0.030*[#  21]+0.030*[#  26]
          +0.030*[#  47]+0.030*[#  52]+0.024*[#  17]+0.024*[#  20]+0.024*[#  43]
          +0.024*[#  46]+0.006*[#  22]+0.006*[#  25]+0.006*[#  48]+0.006*[#  51]
          
    |psi|^2 = 0.960
==== e(  22) =    16.03334 eV ==== 
     psi = 0.090*[#  21]+0.090*[#  26]+0.090*[#  47]+0.090*[#  52]+0.072*[#  17]
          +0.072*[#  20]+0.072*[#  43]+0.072*[#  46]+0.036*[#  23]+0.036*[#  24]
          +0.036*[#  49]+0.036*[#  50]+0.024*[#  18]+0.024*[#  19]+0.024*[#  44]
          +0.024*[#  45]+0.018*[#  22]+0.018*[#  25]+0.018*[#  48]+0.018*[#  51]
          
    |psi|^2 = 0.960
==== e(  23) =    16.82739 eV ==== 
     psi = 0.100*[#  22]+0.100*[#  25]+0.100*[#  48]+0.100*[#  51]+0.075*[#  18]
          +0.075*[#  19]+0.075*[#  44]+0.075*[#  45]+0.050*[#  23]+0.050*[#  24]
          +0.050*[#  49]+0.050*[#  50]+0.025*[#  17]+0.025*[#  20]+0.025*[#  43]
          +0.025*[#  46]
    |psi|^2 = 0.998
==== e(  24) =    16.82748 eV ==== 
     psi = 0.125*[#  21]+0.125*[#  26]+0.125*[#  47]+0.125*[#  52]+0.100*[#  17]
          +0.100*[#  20]+0.100*[#  43]+0.100*[#  46]+0.025*[#  22]+0.025*[#  25]
          +0.025*[#  48]+0.025*[#  51]
    |psi|^2 = 0.998
==== e(  25) =    16.82748 eV ==== 
     psi = 0.100*[#  22]+0.100*[#  25]+0.100*[#  48]+0.100*[#  51]+0.075*[#  18]
          +0.075*[#  19]+0.075*[#  44]+0.075*[#  45]+0.050*[#  23]+0.050*[#  24]
          +0.050*[#  49]+0.050*[#  50]+0.025*[#  17]+0.025*[#  20]+0.025*[#  43]
          +0.025*[#  46]
    |psi|^2 = 0.998
==== e(  26) =    18.55333 eV ==== 
     psi = 0.113*[#  23]+0.113*[#  24]+0.113*[#  49]+0.113*[#  50]+0.075*[#  18]
          +0.075*[#  19]+0.075*[#  44]+0.075*[#  45]+0.031*[#  21]+0.031*[#  26]
          +0.031*[#  47]+0.031*[#  52]+0.025*[#  17]+0.025*[#  20]+0.025*[#  43]
          +0.025*[#  46]+0.006*[#  22]+0.006*[#  25]+0.006*[#  48]+0.006*[#  51]
          
    |psi|^2 = 0.999
==== e(  27) =    18.55340 eV ==== 
     psi = 0.094*[#  21]+0.094*[#  26]+0.094*[#  47]+0.094*[#  52]+0.075*[#  17]
          +0.075*[#  20]+0.075*[#  43]+0.075*[#  46]+0.037*[#  23]+0.037*[#  24]
          +0.037*[#  49]+0.037*[#  50]+0.025*[#  18]+0.025*[#  19]+0.025*[#  44]
          +0.025*[#  45]+0.019*[#  22]+0.019*[#  25]+0.019*[#  48]+0.019*[#  51]
          
    |psi|^2 = 0.999
==== e(  28) =    19.43982 eV ==== 
     psi = 0.100*[#  22]+0.100*[#  25]+0.100*[#  48]+0.100*[#  51]+0.075*[#  18]
          +0.075*[#  19]+0.075*[#  44]+0.075*[#  45]+0.050*[#  23]+0.050*[#  24]
          +0.050*[#  49]+0.050*[#  50]+0.025*[#  17]+0.025*[#  20]+0.025*[#  43]
          +0.025*[#  46]
    |psi|^2 = 1.000
==== e(  29) =    19.43993 eV ==== 
     psi = 0.125*[#  21]+0.125*[#  26]+0.125*[#  47]+0.125*[#  52]+0.100*[#  17]
          +0.100*[#  20]+0.100*[#  43]+0.100*[#  46]+0.025*[#  22]+0.025*[#  25]
          +0.025*[#  48]+0.025*[#  51]
    |psi|^2 = 1.000
==== e(  30) =    19.43993 eV ==== 
     psi = 0.100*[#  22]+0.100*[#  25]+0.100*[#  48]+0.100*[#  51]+0.075*[#  18]
          +0.075*[#  19]+0.075*[#  44]+0.075*[#  45]+0.050*[#  23]+0.050*[#  24]
          +0.050*[#  49]+0.050*[#  50]+0.025*[#  17]+0.025*[#  20]+0.025*[#  43]
          +0.025*[#  46]
    |psi|^2 = 1.000
==== e(  31) =    19.74085 eV ==== 
     psi = 0.099*[#  22]+0.099*[#  25]+0.099*[#  48]+0.099*[#  51]+0.075*[#  18]
          +0.075*[#  19]+0.075*[#  44]+0.075*[#  45]+0.050*[#  23]+0.050*[#  24]
          +0.050*[#  49]+0.050*[#  50]+0.025*[#  17]+0.025*[#  20]+0.025*[#  43]
          +0.025*[#  46]
    |psi|^2 = 0.994
==== e(  32) =    19.74085 eV ==== 
     psi = 0.124*[#  21]+0.124*[#  26]+0.124*[#  47]+0.124*[#  52]+0.099*[#  17]
          +0.099*[#  20]+0.099*[#  43]+0.099*[#  46]+0.025*[#  22]+0.025*[#  25]
          +0.025*[#  48]+0.025*[#  51]
    |psi|^2 = 0.994
==== e(  33) =    19.74085 eV ==== 
     psi = 0.099*[#  22]+0.099*[#  25]+0.099*[#  48]+0.099*[#  51]+0.075*[#  18]
          +0.075*[#  19]+0.075*[#  44]+0.075*[#  45]+0.050*[#  23]+0.050*[#  24]
          +0.050*[#  49]+0.050*[#  50]+0.025*[#  17]+0.025*[#  20]+0.025*[#  43]
          +0.025*[#  46]
    |psi|^2 = 0.994
==== e(  34) =    21.37843 eV ==== 
     psi = 0.112*[#  23]+0.112*[#  24]+0.112*[#  49]+0.112*[#  50]+0.075*[#  18]
          +0.075*[#  19]+0.075*[#  44]+0.075*[#  45]+0.031*[#  21]+0.031*[#  26]
          +0.031*[#  47]+0.031*[#  52]+0.025*[#  17]+0.025*[#  20]+0.025*[#  43]
          +0.025*[#  46]+0.006*[#  22]+0.006*[#  25]+0.006*[#  48]+0.006*[#  51]
          
    |psi|^2 = 0.996
==== e(  35) =    21.37852 eV ==== 
     psi = 0.093*[#  21]+0.093*[#  26]+0.093*[#  47]+0.093*[#  52]+0.075*[#  17]
          +0.075*[#  20]+0.075*[#  43]+0.075*[#  46]+0.037*[#  23]+0.037*[#  24]
          +0.037*[#  49]+0.037*[#  50]+0.025*[#  18]+0.025*[#  19]+0.025*[#  44]
          +0.025*[#  45]+0.019*[#  22]+0.019*[#  25]+0.019*[#  48]+0.019*[#  51]
          
    |psi|^2 = 0.996
==== e(  36) =    22.77693 eV ==== 
     psi = 0.100*[#  22]+0.100*[#  25]+0.100*[#  48]+0.100*[#  51]+0.075*[#  18]
          +0.075*[#  19]+0.075*[#  44]+0.075*[#  45]+0.050*[#  23]+0.050*[#  24]
          +0.050*[#  49]+0.050*[#  50]+0.025*[#  17]+0.025*[#  20]+0.025*[#  43]
          +0.025*[#  46]
    |psi|^2 = 1.000
==== e(  37) =    22.77693 eV ==== 
     psi = 0.125*[#  21]+0.125*[#  26]+0.125*[#  47]+0.125*[#  52]+0.100*[#  17]
          +0.100*[#  20]+0.100*[#  43]+0.100*[#  46]+0.025*[#  22]+0.025*[#  25]
          +0.025*[#  48]+0.025*[#  51]
    |psi|^2 = 1.000
==== e(  38) =    22.77693 eV ==== 
     psi = 0.100*[#  22]+0.100*[#  25]+0.100*[#  48]+0.100*[#  51]+0.075*[#  18]
          +0.075*[#  19]+0.075*[#  44]+0.075*[#  45]+0.050*[#  23]+0.050*[#  24]
          +0.050*[#  49]+0.050*[#  50]+0.025*[#  17]+0.025*[#  20]+0.025*[#  43]
          +0.025*[#  46]
    |psi|^2 = 1.000
==== e(  39) =    28.18857 eV ==== 
     psi = 0.121*[#  16]+0.121*[#  42]+0.114*[#  13]+0.114*[#  39]+0.089*[#  11]
          +0.089*[#  37]+0.082*[#  12]+0.082*[#  38]+0.052*[#  15]+0.052*[#  41]
          +0.039*[#  14]+0.039*[#  40]
    |psi|^2 = 0.994
==== e(  40) =    28.18858 eV ==== 
     psi = 0.113*[#  13]+0.113*[#  16]+0.113*[#  39]+0.113*[#  42]+0.098*[#  14]
          +0.098*[#  15]+0.098*[#  40]+0.098*[#  41]+0.038*[#  11]+0.038*[#  12]
          +0.038*[#  37]+0.038*[#  38]
    |psi|^2 = 0.994

 k =  -0.5000000000  0.0000000000  0.0000000000
==== e(   1) =   -68.28706 eV ==== 
     psi = 0.430*[#   1]+0.430*[#   2]+0.030*[#  39]+0.030*[#  42]+0.020*[#  37]
          +0.020*[#  38]+0.010*[#  40]+0.010*[#  41]+0.009*[#   3]+0.009*[#   4]
          
    |psi|^2 = 1.000
==== e(   2) =   -68.28673 eV ==== 
     psi = 0.430*[#  27]+0.430*[#  28]+0.030*[#  13]+0.030*[#  16]+0.020*[#  11]
          +0.020*[#  12]+0.010*[#  14]+0.010*[#  15]+0.009*[#  29]+0.009*[#  30]
          
    |psi|^2 = 1.000
==== e(   3) =   -64.84624 eV ==== 
     psi = 0.430*[#   1]+0.430*[#   2]+0.031*[#  39]+0.031*[#  42]+0.020*[#  37]
          +0.020*[#  38]+0.010*[#  40]+0.010*[#  41]+0.009*[#   3]+0.009*[#   4]
          
    |psi|^2 = 1.000
==== e(   4) =   -64.84593 eV ==== 
     psi = 0.430*[#  27]+0.430*[#  28]+0.031*[#  13]+0.031*[#  16]+0.020*[#  11]
          +0.020*[#  12]+0.010*[#  14]+0.010*[#  15]+0.009*[#  29]+0.009*[#  30]
          
    |psi|^2 = 1.000
==== e(   5) =   -34.46613 eV ==== 
     psi = 0.241*[#   7]+0.241*[#  10]+0.161*[#   5]+0.161*[#   6]+0.080*[#   8]
          +0.080*[#   9]+0.009*[#  29]+0.009*[#  30]+0.004*[#  13]+0.004*[#  16]
          +0.003*[#  11]+0.003*[#  12]+0.001*[#  14]+0.001*[#  15]
    |psi|^2 = 1.000
==== e(   6) =   -34.46582 eV ==== 
     psi = 0.241*[#  33]+0.241*[#  36]+0.161*[#  31]+0.161*[#  32]+0.080*[#  34]
          +0.080*[#  35]+0.009*[#   3]+0.009*[#   4]+0.004*[#  39]+0.004*[#  42]
          +0.003*[#  37]+0.003*[#  38]+0.001*[#  40]+0.001*[#  41]
    |psi|^2 = 1.000
==== e(   7) =   -34.38972 eV ==== 
     psi = 0.279*[#   8]+0.279*[#   9]+0.209*[#   5]+0.209*[#   6]+0.005*[#   7]
          +0.005*[#  10]+0.003*[#  14]+0.003*[#  15]+0.003*[#  11]+0.003*[#  12]
          
    |psi|^2 = 1.000
==== e(   8) =   -34.38972 eV ==== 
     psi = 0.242*[#   7]+0.242*[#  10]+0.132*[#   8]+0.132*[#   9]+0.120*[#   5]
          +0.120*[#   6]+0.003*[#  13]+0.003*[#  16]+0.002*[#  14]+0.002*[#  15]
          +0.001*[#  11]+0.001*[#  12]
    |psi|^2 = 1.000
==== e(   9) =   -34.38940 eV ==== 
     psi = 0.280*[#  34]+0.280*[#  35]+0.208*[#  31]+0.208*[#  32]+0.005*[#  33]
          +0.005*[#  36]+0.003*[#  40]+0.003*[#  41]+0.002*[#  37]+0.002*[#  38]
          
    |psi|^2 = 1.000
==== e(  10) =   -34.38940 eV ==== 
     psi = 0.242*[#  33]+0.242*[#  36]+0.131*[#  34]+0.131*[#  35]+0.120*[#  31]
          +0.120*[#  32]+0.003*[#  39]+0.003*[#  42]+0.002*[#  40]+0.002*[#  41]
          +0.001*[#  37]+0.001*[#  38]
    |psi|^2 = 1.000
==== e(  11) =   -31.12889 eV ==== 
     psi = 0.241*[#   7]+0.241*[#  10]+0.160*[#   5]+0.160*[#   6]+0.080*[#   8]
          +0.080*[#   9]+0.009*[#  29]+0.009*[#  30]+0.004*[#  13]+0.004*[#  16]
          +0.003*[#  11]+0.003*[#  12]+0.001*[#  14]+0.001*[#  15]
    |psi|^2 = 1.000
==== e(  12) =   -31.12860 eV ==== 
     psi = 0.241*[#  33]+0.241*[#  36]+0.160*[#  31]+0.160*[#  32]+0.080*[#  34]
          +0.080*[#  35]+0.009*[#   3]+0.009*[#   4]+0.004*[#  39]+0.004*[#  42]
          +0.003*[#  37]+0.003*[#  38]+0.001*[#  40]+0.001*[#  41]
    |psi|^2 = 1.000
==== e(  13) =   -31.03762 eV ==== 
     psi = 0.331*[#   8]+0.331*[#   9]+0.163*[#   5]+0.163*[#   6]+0.003*[#  14]
          +0.003*[#  15]+0.002*[#  11]+0.002*[#  12]
    |psi|^2 = 1.000
==== e(  14) =   -31.03762 eV ==== 
     psi = 0.247*[#   7]+0.247*[#  10]+0.167*[#   5]+0.167*[#   6]+0.080*[#   8]
          +0.080*[#   9]+0.003*[#  13]+0.003*[#  16]+0.002*[#  11]+0.002*[#  12]
          
    |psi|^2 = 1.000
==== e(  15) =   -31.03733 eV ==== 
     psi = 0.331*[#  34]+0.331*[#  35]+0.162*[#  31]+0.162*[#  32]+0.003*[#  40]
          +0.003*[#  41]+0.002*[#  37]+0.002*[#  38]
    |psi|^2 = 1.000
==== e(  16) =   -31.03733 eV ==== 
     psi = 0.247*[#  33]+0.247*[#  36]+0.167*[#  31]+0.167*[#  32]+0.080*[#  34]
          +0.080*[#  35]+0.003*[#  39]+0.003*[#  42]+0.002*[#  37]+0.002*[#  38]
          
    |psi|^2 = 1.000
==== e(  17) =    13.75503 eV ==== 
     psi = 0.128*[#  39]+0.128*[#  42]+0.093*[#   3]+0.093*[#   4]+0.085*[#  37]
          +0.085*[#  38]+0.043*[#  40]+0.043*[#  41]+0.042*[#  21]+0.042*[#  26]
          +0.034*[#  17]+0.034*[#  20]+0.022*[#   1]+0.022*[#   2]+0.017*[#  23]
          +0.017*[#  24]+0.011*[#  18]+0.011*[#  19]+0.008*[#  22]+0.008*[#  25]
          +0.007*[#  33]+0.007*[#  36]+0.005*[#  31]+0.005*[#  32]+0.002*[#  34]
          +0.002*[#  35]
    |psi|^2 = 0.996
==== e(  18) =    13.75508 eV ==== 
     psi = 0.128*[#  13]+0.128*[#  16]+0.093*[#  29]+0.093*[#  30]+0.085*[#  11]
          +0.085*[#  12]+0.043*[#  14]+0.043*[#  15]+0.042*[#  47]+0.042*[#  52]
          +0.034*[#  43]+0.034*[#  46]+0.022*[#  27]+0.022*[#  28]+0.017*[#  49]
          +0.017*[#  50]+0.011*[#  44]+0.011*[#  45]+0.008*[#  48]+0.008*[#  51]
          +0.007*[#   7]+0.007*[#  10]+0.005*[#   5]+0.005*[#   6]+0.002*[#   8]
          +0.002*[#   9]
    |psi|^2 = 0.996
==== e(  19) =    14.48456 eV ==== 
     psi = 0.142*[#  39]+0.142*[#  42]+0.100*[#   3]+0.100*[#   4]+0.095*[#  37]
          +0.095*[#  38]+0.047*[#  40]+0.047*[#  41]+0.027*[#  21]+0.027*[#  26]
          +0.026*[#   1]+0.026*[#   2]+0.022*[#  17]+0.022*[#  20]+0.011*[#  23]
          +0.011*[#  24]+0.008*[#  33]+0.008*[#  36]+0.007*[#  18]+0.007*[#  19]
          +0.005*[#  22]+0.005*[#  25]+0.005*[#  31]+0.005*[#  32]+0.003*[#  34]
          +0.003*[#  35]
    |psi|^2 = 0.996
==== e(  20) =    14.48460 eV ==== 
     psi = 0.142*[#  13]+0.142*[#  16]+0.100*[#  29]+0.100*[#  30]+0.095*[#  11]
          +0.095*[#  12]+0.047*[#  14]+0.047*[#  15]+0.027*[#  47]+0.027*[#  52]
          +0.026*[#  27]+0.026*[#  28]+0.022*[#  43]+0.022*[#  46]+0.011*[#  49]
          +0.011*[#  50]+0.008*[#   7]+0.008*[#  10]+0.007*[#  44]+0.007*[#  45]
          +0.005*[#   5]+0.005*[#   6]+0.005*[#  48]+0.005*[#  51]+0.003*[#   8]
          +0.003*[#   9]
    |psi|^2 = 0.996
==== e(  21) =    16.32024 eV ==== 
     psi = 0.222*[#  23]+0.222*[#  24]+0.148*[#  18]+0.148*[#  19]+0.062*[#  21]
          +0.062*[#  26]+0.049*[#  17]+0.049*[#  20]+0.012*[#  22]+0.012*[#  25]
          
    |psi|^2 = 0.988
==== e(  22) =    16.32047 eV ==== 
     psi = 0.222*[#  49]+0.222*[#  50]+0.148*[#  44]+0.148*[#  45]+0.062*[#  47]
          +0.062*[#  52]+0.049*[#  43]+0.049*[#  46]+0.012*[#  48]+0.012*[#  51]
          
    |psi|^2 = 0.988
==== e(  23) =    17.25216 eV ==== 
     psi = 0.244*[#  21]+0.244*[#  26]+0.195*[#  17]+0.195*[#  20]+0.049*[#  22]
          +0.049*[#  25]+0.005*[#  39]+0.005*[#  42]+0.003*[#  37]+0.003*[#  38]
          +0.002*[#  40]+0.002*[#  41]
    |psi|^2 = 0.997
==== e(  24) =    17.25216 eV ==== 
     psi = 0.195*[#  22]+0.195*[#  25]+0.146*[#  18]+0.146*[#  19]+0.098*[#  23]
          +0.098*[#  24]+0.049*[#  17]+0.049*[#  20]+0.006*[#  40]+0.006*[#  41]
          +0.003*[#  37]+0.003*[#  38]
    |psi|^2 = 0.997
==== e(  25) =    17.25241 eV ==== 
     psi = 0.244*[#  47]+0.244*[#  52]+0.195*[#  43]+0.195*[#  46]+0.049*[#  48]
          +0.049*[#  51]+0.005*[#  13]+0.005*[#  16]+0.003*[#  11]+0.003*[#  12]
          +0.002*[#  14]+0.002*[#  15]
    |psi|^2 = 0.997
==== e(  26) =    17.25241 eV ==== 
     psi = 0.195*[#  48]+0.195*[#  51]+0.146*[#  44]+0.146*[#  45]+0.098*[#  49]
          +0.098*[#  50]+0.049*[#  43]+0.049*[#  46]+0.006*[#  14]+0.006*[#  15]
          +0.003*[#  11]+0.003*[#  12]
    |psi|^2 = 0.997
==== e(  27) =    18.09986 eV ==== 
     psi = 0.200*[#  22]+0.200*[#  25]+0.150*[#  18]+0.150*[#  19]+0.100*[#  23]
          +0.100*[#  24]+0.050*[#  17]+0.050*[#  20]
    |psi|^2 = 0.999
==== e(  28) =    18.10013 eV ==== 
     psi = 0.200*[#  48]+0.200*[#  51]+0.150*[#  44]+0.150*[#  45]+0.100*[#  49]
          +0.100*[#  50]+0.050*[#  43]+0.050*[#  46]
    |psi|^2 = 0.999
==== e(  29) =    18.54377 eV ==== 
     psi = 0.217*[#  23]+0.217*[#  24]+0.145*[#  18]+0.145*[#  19]+0.060*[#  21]
          +0.060*[#  26]+0.048*[#  17]+0.048*[#  20]+0.012*[#  22]+0.012*[#  25]
          
    |psi|^2 = 0.966
==== e(  30) =    18.54396 eV ==== 
     psi = 0.217*[#  49]+0.217*[#  50]+0.145*[#  44]+0.145*[#  45]+0.060*[#  47]
          +0.060*[#  52]+0.048*[#  43]+0.048*[#  46]+0.012*[#  48]+0.012*[#  51]
          
    |psi|^2 = 0.966
==== e(  31) =    19.62195 eV ==== 
     psi = 0.145*[#  21]+0.145*[#  26]+0.116*[#  17]+0.116*[#  20]+0.058*[#  23]
          +0.058*[#  24]+0.039*[#  18]+0.039*[#  19]+0.037*[#  39]+0.037*[#  42]
          +0.033*[#   3]+0.033*[#   4]+0.029*[#  22]+0.029*[#  25]+0.024*[#  37]
          +0.024*[#  38]+0.012*[#  40]+0.012*[#  41]+0.004*[#   1]+0.004*[#   2]
          
    |psi|^2 = 0.999
==== e(  32) =    19.62219 eV ==== 
     psi = 0.145*[#  47]+0.145*[#  52]+0.116*[#  43]+0.116*[#  46]+0.058*[#  49]
          +0.058*[#  50]+0.039*[#  44]+0.039*[#  45]+0.037*[#  13]+0.037*[#  16]
          +0.033*[#  29]+0.033*[#  30]+0.029*[#  48]+0.029*[#  51]+0.024*[#  11]
          +0.024*[#  12]+0.012*[#  14]+0.012*[#  15]+0.004*[#  27]+0.004*[#  28]
          
    |psi|^2 = 0.999
==== e(  33) =    20.03226 eV ==== 
     psi = 0.191*[#  22]+0.191*[#  25]+0.143*[#  18]+0.143*[#  19]+0.095*[#  23]
          +0.095*[#  24]+0.048*[#  17]+0.048*[#  20]+0.012*[#  40]+0.012*[#  41]
          +0.006*[#  37]+0.006*[#  38]
    |psi|^2 = 0.989
==== e(  34) =    20.03226 eV ==== 
     psi = 0.238*[#  21]+0.238*[#  26]+0.191*[#  17]+0.191*[#  20]+0.048*[#  22]
          +0.048*[#  25]+0.009*[#  39]+0.009*[#  42]+0.006*[#  37]+0.006*[#  38]
          +0.003*[#  40]+0.003*[#  41]
    |psi|^2 = 0.989
==== e(  35) =    20.03246 eV ==== 
     psi = 0.191*[#  48]+0.191*[#  51]+0.143*[#  44]+0.143*[#  45]+0.095*[#  49]
          +0.095*[#  50]+0.048*[#  43]+0.048*[#  46]+0.012*[#  14]+0.012*[#  15]
          +0.006*[#  11]+0.006*[#  12]
    |psi|^2 = 0.989
==== e(  36) =    20.03246 eV ==== 
     psi = 0.238*[#  47]+0.238*[#  52]+0.191*[#  43]+0.191*[#  46]+0.048*[#  48]
          +0.048*[#  51]+0.009*[#  13]+0.009*[#  16]+0.006*[#  11]+0.006*[#  12]
          +0.003*[#  14]+0.003*[#  15]
    |psi|^2 = 0.989
==== e(  37) =    21.20655 eV ==== 
     psi = 0.199*[#  22]+0.199*[#  25]+0.149*[#  18]+0.149*[#  19]+0.100*[#  23]
          +0.100*[#  24]+0.050*[#  17]+0.050*[#  20]
    |psi|^2 = 0.996
==== e(  38) =    21.20679 eV ==== 
     psi = 0.199*[#  48]+0.199*[#  51]+0.149*[#  44]+0.149*[#  45]+0.100*[#  49]
          +0.100*[#  50]+0.050*[#  43]+0.050*[#  46]
    |psi|^2 = 0.996
==== e(  39) =    22.25634 eV ==== 
     psi = 0.160*[#  21]+0.160*[#  26]+0.128*[#  17]+0.128*[#  20]+0.064*[#  23]
          +0.064*[#  24]+0.043*[#  18]+0.043*[#  19]+0.032*[#  22]+0.032*[#  25]
          +0.024*[#   3]+0.024*[#   4]+0.023*[#  39]+0.023*[#  42]+0.015*[#  37]
          +0.015*[#  38]+0.008*[#  40]+0.008*[#  41]+0.003*[#   1]+0.003*[#   2]
          
    |psi|^2 = 0.998
==== e(  40) =    22.25657 eV ==== 
     psi = 0.160*[#  47]+0.160*[#  52]+0.128*[#  43]+0.128*[#  46]+0.064*[#  49]
          +0.064*[#  50]+0.043*[#  44]+0.043*[#  45]+0.032*[#  48]+0.032*[#  51]
          +0.024*[#  29]+0.024*[#  30]+0.023*[#  13]+0.023*[#  16]+0.015*[#  11]
          +0.015*[#  12]+0.008*[#  14]+0.008*[#  15]+0.003*[#  27]+0.003*[#  28]
          
    |psi|^2 = 0.998

Lowdin Charges: 

     Atom #   1: total charge =  15.9361, s =  2.6752, 
     Atom #   1: total charge =  15.9361, p =  6.7641, 
     Atom #   1: total charge =  15.9361, d =  6.4968, 
     Atom #   2: total charge =  15.9360, s =  2.6752, 
     Atom #   2: total charge =  15.9360, p =  6.7641, 
     Atom #   2: total charge =  15.9360, d =  6.4967, 
     Spilling Parameter:   0.0040

     PROJWFC      :      2.64s CPU      2.83s WALL


   This run was terminated on:  13:49:24   3Oct2021            

=------------------------------------------------------------------------------=
   JOB DONE.
=------------------------------------------------------------------------------=
