
     Program PROJWFC v.6.5 starts on 17Aug2020 at  8:37:10 

     This program is part of the open-source Quantum ESPRESSO suite
     for quantum simulation of materials; please cite
         "P. Giannozzi et al., J. Phys.:Condens. Matter 21 395502 (2009);
         "P. Giannozzi et al., J. Phys.:Condens. Matter 29 465901 (2017);
          URL http://www.quantum-espresso.org", 
     in publications or presentations arising from this work. More details at
     http://www.quantum-espresso.org/quote

     Parallel version (MPI), running on     1 processors

     MPI processes distributed on     1 nodes

     Reading xml data from directory:

     ./out/aiida.save/

     IMPORTANT: XC functional enforced from input :
     Exchange-correlation= PBE
                           (   1   4   3   4   0   0   0)
     Any further DFT definition will be discarded
     Please, verify this is what you really want

               file Fe.rel-pbe-kjpaw.UPF: wavefunction(s)  3D renormalized
 
     G-vector sticks info
     --------------------
     sticks:   dense  smooth     PW     G-vecs:    dense   smooth      PW
     Sum         487     291     99                 6963     3151     627
 

     Gaussian broadening (read from input): ngauss,degauss=   0    0.020000


     Calling projwave .... 
 
  Problem Sizes 
  natomwfc =            18
  nbnd     =            16
  nkstot   =            56
  npwx     =           416
  nkb      =            34
 

     Atomic states used for projection
     (read from pseudopotential files):

     state #   1: atom   1 (Fe ), wfc  1 (l=0 j=0.5 m_j=-0.5)
     state #   2: atom   1 (Fe ), wfc  1 (l=0 j=0.5 m_j= 0.5)
     state #   3: atom   1 (Fe ), wfc  2 (l=1 j=0.5 m_j=-0.5)
     state #   4: atom   1 (Fe ), wfc  2 (l=1 j=0.5 m_j= 0.5)
     state #   5: atom   1 (Fe ), wfc  3 (l=1 j=1.5 m_j=-1.5)
     state #   6: atom   1 (Fe ), wfc  3 (l=1 j=1.5 m_j=-0.5)
     state #   7: atom   1 (Fe ), wfc  3 (l=1 j=1.5 m_j= 0.5)
     state #   8: atom   1 (Fe ), wfc  3 (l=1 j=1.5 m_j= 1.5)
     state #   9: atom   1 (Fe ), wfc  4 (l=2 j=1.5 m_j=-1.5)
     state #  10: atom   1 (Fe ), wfc  4 (l=2 j=1.5 m_j=-0.5)
     state #  11: atom   1 (Fe ), wfc  4 (l=2 j=1.5 m_j= 0.5)
     state #  12: atom   1 (Fe ), wfc  4 (l=2 j=1.5 m_j= 1.5)
     state #  13: atom   1 (Fe ), wfc  5 (l=2 j=2.5 m_j=-2.5)
     state #  14: atom   1 (Fe ), wfc  5 (l=2 j=2.5 m_j=-1.5)
     state #  15: atom   1 (Fe ), wfc  5 (l=2 j=2.5 m_j=-0.5)
     state #  16: atom   1 (Fe ), wfc  5 (l=2 j=2.5 m_j= 0.5)
     state #  17: atom   1 (Fe ), wfc  5 (l=2 j=2.5 m_j= 1.5)
     state #  18: atom   1 (Fe ), wfc  5 (l=2 j=2.5 m_j= 2.5)

 k =   0.0000000000  0.0000000000  0.1250000000
==== e(   1) =     4.58182 eV ==== 
     psi = 0.682*[#   2]+0.212*[#   7]+0.104*[#   4]
    |psi|^2 = 0.999
==== e(   2) =     4.70741 eV ==== 
     psi = 0.688*[#   1]+0.207*[#   6]+0.102*[#   3]
    |psi|^2 = 0.998
==== e(   3) =    10.33531 eV ==== 
     psi = 0.619*[#  10]+0.381*[#  15]
    |psi|^2 = 1.000
==== e(   4) =    10.39438 eV ==== 
     psi = 0.780*[#  17]+0.219*[#  12]
    |psi|^2 = 1.000
==== e(   5) =    10.44738 eV ==== 
     psi = 0.470*[#   9]+0.431*[#  18]+0.100*[#  14]
    |psi|^2 = 1.000
==== e(   6) =    11.35455 eV ==== 
     psi = 0.569*[#  18]+0.366*[#   9]+0.065*[#  14]
    |psi|^2 = 1.000
==== e(   7) =    11.53264 eV ==== 
     psi = 0.508*[#  11]+0.491*[#  16]
    |psi|^2 = 1.000
==== e(   8) =    12.18433 eV ==== 
     psi = 0.508*[#  16]+0.490*[#  11]
    |psi|^2 = 0.998
==== e(   9) =    12.23564 eV ==== 
     psi = 0.834*[#  14]+0.164*[#   9]
    |psi|^2 = 0.998
==== e(  10) =    12.30994 eV ==== 
     psi = 0.466*[#  13]+0.413*[#  12]+0.120*[#  17]
    |psi|^2 = 0.999
==== e(  11) =    14.06010 eV ==== 
     psi = 0.532*[#  13]+0.366*[#  12]+0.100*[#  17]
    |psi|^2 = 0.998
==== e(  12) =    14.30498 eV ==== 
     psi = 0.618*[#  15]+0.380*[#  10]
    |psi|^2 = 0.999
==== e(  13) =    35.32083 eV ==== 
 
    |psi|^2 = 0.002
==== e(  14) =    35.41429 eV ==== 
 
    |psi|^2 = 0.000
==== e(  15) =    36.60362 eV ==== 
 
    |psi|^2 = 0.001
==== e(  16) =    36.71727 eV ==== 
     psi = 0.002*[#   3]
    |psi|^2 = 0.003

 k =   0.0000000000 -0.1250000000  0.2500000000
==== e(   1) =     5.74692 eV ==== 
     psi = 0.340*[#   7]+0.333*[#   2]+0.169*[#   4]+0.066*[#   8]+0.044*[#   3]
          +0.022*[#   6]+0.006*[#  16]+0.005*[#  17]+0.004*[#  10]+0.004*[#  11]
          +0.003*[#  15]+0.001*[#  12]
    |psi|^2 = 0.999
==== e(   2) =     5.89564 eV ==== 
     psi = 0.341*[#   1]+0.340*[#   6]+0.169*[#   3]+0.066*[#   5]+0.044*[#   4]
          +0.022*[#   7]+0.004*[#  15]+0.003*[#  14]+0.002*[#  10]+0.002*[#  11]
          +0.002*[#  16]
    |psi|^2 = 0.997
==== e(   3) =    10.10654 eV ==== 
     psi = 0.216*[#  10]+0.208*[#  17]+0.178*[#  18]+0.169*[#   9]+0.134*[#  15]
          +0.057*[#  12]+0.038*[#  14]
    |psi|^2 = 1.000
==== e(   4) =    10.27848 eV ==== 
     psi = 0.326*[#  17]+0.253*[#  10]+0.156*[#  15]+0.090*[#  12]+0.081*[#   9]
          +0.052*[#  18]+0.018*[#  14]+0.007*[#   7]+0.004*[#  16]+0.004*[#   4]
          +0.003*[#   2]+0.003*[#  11]+0.002*[#   8]+0.001*[#   3]
    |psi|^2 = 0.999
==== e(   5) =    11.03065 eV ==== 
     psi = 0.449*[#   9]+0.223*[#  17]+0.087*[#  18]+0.081*[#  14]+0.072*[#  12]
          +0.055*[#  10]+0.033*[#  15]
    |psi|^2 = 1.000
==== e(   6) =    11.14968 eV ==== 
     psi = 0.680*[#  18]+0.136*[#   9]+0.089*[#  10]+0.054*[#  15]+0.025*[#  14]
          +0.010*[#  17]+0.004*[#  12]
    |psi|^2 = 1.000
==== e(   7) =    11.62282 eV ==== 
     psi = 0.556*[#  11]+0.421*[#  16]+0.004*[#  13]+0.003*[#  12]+0.003*[#   2]
          +0.003*[#  18]+0.002*[#   7]+0.002*[#  10]+0.002*[#   4]+0.001*[#  14]
          
    |psi|^2 = 1.000
==== e(   8) =    11.90132 eV ==== 
     psi = 0.233*[#  16]+0.229*[#  14]+0.178*[#  13]+0.140*[#  12]+0.125*[#  11]
          +0.051*[#  17]+0.042*[#   9]
    |psi|^2 = 0.997
==== e(   9) =    12.09563 eV ==== 
     psi = 0.401*[#  14]+0.242*[#  16]+0.197*[#  11]+0.075*[#   9]+0.034*[#  12]
          +0.018*[#  13]+0.011*[#  17]+0.004*[#   6]+0.003*[#  15]+0.003*[#   3]
          +0.002*[#   5]+0.001*[#   4]+0.001*[#  10]+0.001*[#   7]
    |psi|^2 = 0.996
==== e(  10) =    12.95946 eV ==== 
     psi = 0.275*[#  13]+0.271*[#  12]+0.176*[#  14]+0.089*[#  11]+0.075*[#  17]
          +0.073*[#  16]+0.040*[#   9]
    |psi|^2 = 0.999
==== e(  11) =    13.70844 eV ==== 
     psi = 0.517*[#  13]+0.322*[#  12]+0.088*[#  17]+0.023*[#  14]+0.020*[#  11]
          +0.016*[#  16]+0.005*[#   9]+0.002*[#  15]+0.001*[#  10]
    |psi|^2 = 0.996
==== e(  12) =    14.40768 eV ==== 
     psi = 0.610*[#  15]+0.375*[#  10]+0.003*[#  13]+0.002*[#  12]+0.002*[#   1]
          +0.001*[#  14]+0.001*[#   6]
    |psi|^2 = 0.999
==== e(  13) =    30.90716 eV ==== 
     psi = 0.125*[#   2]+0.089*[#   8]+0.074*[#   3]+0.031*[#   6]+0.002*[#   4]
          
    |psi|^2 = 0.322
==== e(  14) =    31.31910 eV ==== 
     psi = 0.120*[#   1]+0.083*[#   5]+0.068*[#   4]+0.029*[#   7]+0.002*[#  13]
          +0.001*[#   3]+0.002*[#  12]+0.001*[#  14]
    |psi|^2 = 0.309
==== e(  15) =    34.27473 eV ==== 
     psi = 0.020*[#   2]+0.008*[#   4]+0.005*[#   7]
    |psi|^2 = 0.034
==== e(  16) =    34.40037 eV ==== 
     psi = 0.021*[#   1]+0.008*[#   3]+0.004*[#   6]
    |psi|^2 = 0.034

 k =   0.0000000000 -0.2500000000  0.3750000000
==== e(   1) =     7.39156 eV ==== 
     psi = 0.228*[#   7]+0.187*[#   2]+0.115*[#   4]+0.086*[#  17]+0.067*[#   8]
          +0.066*[#  10]+0.045*[#   3]+0.043*[#  15]+0.039*[#  16]+0.027*[#  11]
          +0.025*[#  18]+0.022*[#   6]+0.022*[#  12]+0.021*[#   9]+0.005*[#  14]
          
    |psi|^2 = 0.998
==== e(   2) =     7.82297 eV ==== 
     psi = 0.282*[#   6]+0.217*[#   1]+0.142*[#   3]+0.086*[#   5]+0.057*[#   4]
          +0.050*[#  14]+0.039*[#  11]+0.029*[#   7]+0.025*[#  16]+0.022*[#  15]
          +0.015*[#  10]+0.013*[#   9]+0.010*[#  13]+0.009*[#  12]+0.002*[#  17]
          
    |psi|^2 = 0.996
==== e(   3) =     9.72440 eV ==== 
     psi = 0.213*[#  17]+0.202*[#   9]+0.202*[#  18]+0.171*[#  10]+0.107*[#  15]
          +0.057*[#  12]+0.047*[#  14]
    |psi|^2 = 1.000
==== e(   4) =    10.27758 eV ==== 
     psi = 0.235*[#  18]+0.194*[#   9]+0.097*[#  10]+0.094*[#  17]+0.090*[#   7]
          +0.060*[#  15]+0.045*[#   8]+0.045*[#   4]+0.044*[#  14]+0.032*[#   3]
          +0.025*[#  12]+0.017*[#   2]+0.015*[#   6]+0.002*[#  16]+0.001*[#  11]
          
    |psi|^2 = 0.999
==== e(   5) =    11.34412 eV ==== 
     psi = 0.233*[#   9]+0.179*[#  18]+0.148*[#  12]+0.125*[#  17]+0.114*[#  10]
          +0.084*[#  11]+0.069*[#  15]+0.023*[#  13]+0.008*[#   7]+0.005*[#  16]
          +0.004*[#   8]+0.003*[#   4]+0.002*[#   3]+0.002*[#   6]
    |psi|^2 = 0.999
==== e(   6) =    11.44851 eV ==== 
     psi = 0.244*[#  14]+0.188*[#  13]+0.146*[#  11]+0.121*[#  17]+0.107*[#  16]
          +0.102*[#  12]+0.041*[#  18]+0.023*[#  10]+0.014*[#  15]+0.005*[#   9]
          +0.003*[#   4]+0.001*[#   7]
    |psi|^2 = 0.997
==== e(   7) =    11.77618 eV ==== 
     psi = 0.491*[#  11]+0.151*[#  16]+0.076*[#   9]+0.066*[#  12]+0.060*[#  14]
          +0.042*[#   4]+0.041*[#   6]+0.027*[#  13]+0.017*[#   5]+0.009*[#   2]
          +0.008*[#   8]+0.004*[#   7]+0.002*[#   3]+0.001*[#  17]+0.001*[#  18]
          
    |psi|^2 = 0.998
==== e(   8) =    11.86115 eV ==== 
     psi = 0.509*[#  16]+0.127*[#  14]+0.092*[#  13]+0.056*[#  12]+0.042*[#   7]
          +0.040*[#   3]+0.028*[#   5]+0.025*[#   6]+0.023*[#  18]+0.020*[#   9]
          +0.012*[#  17]+0.009*[#  10]+0.005*[#   2]+0.004*[#   4]+0.004*[#   8]
          
    |psi|^2 = 0.997
==== e(   9) =    12.02741 eV ==== 
     psi = 0.291*[#  18]+0.205*[#  17]+0.158*[#   9]+0.134*[#  10]+0.100*[#  14]
          +0.084*[#  15]+0.020*[#  12]+0.002*[#   6]+0.002*[#  11]+0.001*[#   5]
          +0.001*[#  16]
    |psi|^2 = 1.000
==== e(  10) =    13.74542 eV ==== 
     psi = 0.305*[#  12]+0.298*[#  13]+0.150*[#  14]+0.083*[#  17]+0.060*[#  11]
          +0.047*[#  16]+0.035*[#   9]+0.010*[#  15]+0.006*[#  10]+0.001*[#   6]
          
    |psi|^2 = 0.997
==== e(  11) =    14.04812 eV ==== 
     psi = 0.337*[#  13]+0.174*[#  12]+0.158*[#  14]+0.139*[#  11]+0.105*[#  16]
          +0.046*[#  17]+0.037*[#   9]+0.001*[#   5]
    |psi|^2 = 0.999
==== e(  12) =    14.52119 eV ==== 
     psi = 0.586*[#  15]+0.357*[#  10]+0.016*[#  13]+0.010*[#   6]+0.009*[#  12]
          +0.005*[#   1]+0.005*[#   3]+0.004*[#   5]+0.003*[#   4]+0.002*[#  17]
          +0.001*[#   7]
    |psi|^2 = 0.999
==== e(  13) =    25.19084 eV ==== 
     psi = 0.600*[#   2]+0.139*[#   8]+0.101*[#   3]+0.047*[#   6]+0.006*[#  17]
          +0.005*[#   7]+0.005*[#  10]+0.004*[#   4]+0.003*[#  15]+0.002*[#  18]
          +0.002*[#  12]+0.001*[#   9]
    |psi|^2 = 0.917
==== e(  14) =    25.95574 eV ==== 
     psi = 0.595*[#   1]+0.131*[#   5]+0.095*[#   4]+0.044*[#   7]+0.012*[#  14]
          +0.009*[#  11]+0.006*[#  16]+0.006*[#  13]+0.004*[#  12]+0.004*[#   6]
          +0.004*[#   3]+0.003*[#   9]+0.001*[#  17]
    |psi|^2 = 0.916
==== e(  15) =    31.91080 eV ==== 
     psi = 0.031*[#   7]+0.029*[#   2]+0.025*[#   4]+0.018*[#   3]+0.017*[#   8]
          +0.010*[#   6]
    |psi|^2 = 0.131
==== e(  16) =    32.04342 eV ==== 
     psi = 0.028*[#   1]+0.027*[#   6]+0.025*[#   3]+0.017*[#   4]+0.017*[#   5]
          +0.009*[#   7]+0.001*[#   8]
    |psi|^2 = 0.125

 k =   0.0000000000 -0.3750000000  0.5000000000
==== e(   1) =     7.90302 eV ==== 
     psi = 0.205*[#  17]+0.158*[#  10]+0.112*[#  18]+0.104*[#   2]+0.102*[#  15]
          +0.095*[#   9]+0.061*[#  16]+0.053*[#  12]+0.042*[#  11]+0.026*[#   7]
          +0.023*[#  14]+0.013*[#   4]+0.003*[#   8]+0.002*[#   3]
    |psi|^2 = 0.999
==== e(   2) =     9.05936 eV ==== 
     psi = 0.197*[#  14]+0.166*[#   1]+0.155*[#  11]+0.095*[#  16]+0.077*[#  13]
          +0.065*[#  12]+0.052*[#   6]+0.051*[#   9]+0.047*[#  15]+0.035*[#  10]
          +0.027*[#   3]+0.015*[#  17]+0.007*[#   5]+0.005*[#   4]+0.002*[#   7]
          
    |psi|^2 = 0.997
==== e(   3) =     9.46512 eV ==== 
     psi = 0.229*[#  18]+0.209*[#   9]+0.196*[#  17]+0.163*[#  10]+0.104*[#  15]
          +0.051*[#  12]+0.048*[#  14]
    |psi|^2 = 1.000
==== e(   4) =    11.00867 eV ==== 
     psi = 0.239*[#  18]+0.188*[#   9]+0.183*[#  16]+0.132*[#  11]+0.072*[#   7]
          +0.052*[#  14]+0.042*[#   8]+0.035*[#   4]+0.032*[#   3]+0.012*[#   6]
          +0.010*[#   2]+0.003*[#  17]
    |psi|^2 = 0.999
==== e(   5) =    11.12776 eV ==== 
     psi = 0.227*[#  13]+0.222*[#  12]+0.186*[#  11]+0.177*[#  14]+0.076*[#  16]
          +0.074*[#   9]+0.029*[#  17]+0.002*[#  18]+0.001*[#   5]
    |psi|^2 = 0.997
==== e(   6) =    11.51114 eV ==== 
     psi = 0.261*[#  16]+0.167*[#  17]+0.126*[#  18]+0.119*[#  11]+0.105*[#  10]
          +0.082*[#   9]+0.063*[#  15]+0.040*[#  14]+0.022*[#  12]+0.004*[#  13]
          +0.004*[#   2]+0.002*[#   8]+0.001*[#   3]+0.001*[#   7]+0.001*[#   4]
          
    |psi|^2 = 1.000
==== e(   7) =    12.38920 eV ==== 
     psi = 0.230*[#   6]+0.147*[#   5]+0.113*[#   3]+0.111*[#   4]+0.099*[#  13]
          +0.083*[#  12]+0.051*[#  15]+0.044*[#   7]+0.029*[#  10]+0.022*[#  11]
          +0.021*[#  14]+0.019*[#  17]+0.011*[#  16]+0.008*[#   1]+0.006*[#   9]
          
    |psi|^2 = 0.996
==== e(   8) =    12.80610 eV ==== 
     psi = 0.271*[#  18]+0.196*[#  17]+0.187*[#   9]+0.157*[#  10]+0.086*[#  15]
          +0.057*[#  14]+0.044*[#  12]
    |psi|^2 = 1.000
==== e(   9) =    13.11680 eV ==== 
     psi = 0.258*[#   7]+0.140*[#   8]+0.127*[#   4]+0.117*[#  16]+0.104*[#   3]
          +0.082*[#  11]+0.042*[#   6]+0.041*[#   2]+0.024*[#  17]+0.018*[#  10]
          +0.015*[#  18]+0.011*[#   9]+0.009*[#  15]+0.005*[#  12]+0.003*[#  14]
          
    |psi|^2 = 0.997
==== e(  10) =    13.95086 eV ==== 
     psi = 0.246*[#  13]+0.199*[#  12]+0.143*[#  14]+0.102*[#  15]+0.084*[#  11]
          +0.067*[#  16]+0.058*[#  10]+0.055*[#  17]+0.035*[#   9]+0.002*[#   5]
          +0.002*[#   6]+0.002*[#   3]+0.001*[#   1]+0.001*[#   7]
    |psi|^2 = 0.998
==== e(  11) =    14.86634 eV ==== 
     psi = 0.405*[#  15]+0.248*[#  10]+0.084*[#  12]+0.072*[#   6]+0.041*[#   5]
          +0.035*[#   3]+0.028*[#   4]+0.020*[#  13]+0.020*[#  17]+0.020*[#  14]
          +0.011*[#   7]+0.010*[#   1]+0.005*[#   9]
    |psi|^2 = 0.999
==== e(  12) =    14.94148 eV ==== 
     psi = 0.311*[#  13]+0.173*[#  14]+0.155*[#  12]+0.144*[#  11]+0.106*[#  16]
          +0.042*[#   9]+0.040*[#  17]+0.013*[#  15]+0.008*[#  10]+0.002*[#   4]
          +0.002*[#   6]+0.001*[#   7]+0.001*[#   3]
    |psi|^2 = 1.000
==== e(  13) =    20.51251 eV ==== 
     psi = 0.774*[#   2]+0.062*[#   8]+0.045*[#   3]+0.027*[#  17]+0.021*[#   6]
          +0.019*[#  10]+0.014*[#  15]+0.006*[#  12]+0.005*[#  18]+0.004*[#   9]
          +0.003*[#   7]+0.002*[#   4]+0.001*[#  14]
    |psi|^2 = 0.985
==== e(  14) =    21.67910 eV ==== 
     psi = 0.746*[#   1]+0.052*[#   5]+0.042*[#  14]+0.038*[#   4]+0.030*[#  11]
          +0.021*[#  16]+0.018*[#   7]+0.013*[#  13]+0.010*[#   9]+0.009*[#  12]
          +0.002*[#  17]+0.002*[#  15]+0.001*[#   6]+0.001*[#  10]
    |psi|^2 = 0.986
==== e(  15) =    30.56729 eV ==== 
     psi = 0.062*[#   7]+0.043*[#   3]+0.040*[#   4]+0.035*[#   8]+0.022*[#   6]
          +0.020*[#   2]
    |psi|^2 = 0.223
==== e(  16) =    30.66621 eV ==== 
     psi = 0.054*[#   6]+0.043*[#   3]+0.038*[#   4]+0.037*[#   5]+0.020*[#   7]
          +0.018*[#   1]+0.002*[#   8]
    |psi|^2 = 0.214

 k =  -0.1250000000  0.1250000000  0.1250000000
==== e(   1) =     5.18340 eV ==== 
     psi = 0.440*[#   2]+0.185*[#   8]+0.123*[#   7]+0.122*[#   3]+0.062*[#   6]
          +0.061*[#   4]+0.002*[#  17]+0.001*[#  10]+0.001*[#  18]
    |psi|^2 = 0.999
==== e(   2) =     5.31505 eV ==== 
     psi = 0.448*[#   1]+0.182*[#   5]+0.122*[#   6]+0.120*[#   4]+0.061*[#   7]
          +0.060*[#   3]+0.001*[#  14]
    |psi|^2 = 0.998
==== e(   3) =    10.15811 eV ==== 
     psi = 0.389*[#  10]+0.240*[#  15]+0.211*[#  18]+0.088*[#   9]+0.029*[#  17]
          +0.019*[#  14]+0.009*[#  16]+0.008*[#  12]+0.006*[#  11]
    |psi|^2 = 1.000
==== e(   4) =    10.17387 eV ==== 
     psi = 0.449*[#  17]+0.220*[#   9]+0.124*[#  12]+0.092*[#  18]+0.049*[#  14]
          +0.031*[#  10]+0.019*[#  15]+0.009*[#  16]+0.006*[#  11]
    |psi|^2 = 1.000
==== e(   5) =    10.93968 eV ==== 
     psi = 0.284*[#  17]+0.183*[#  10]+0.168*[#   9]+0.131*[#  18]+0.108*[#  15]
          +0.088*[#  12]+0.030*[#  14]+0.003*[#   2]+0.001*[#   8]
    |psi|^2 = 1.000
==== e(   6) =    11.41153 eV ==== 
     psi = 0.355*[#  11]+0.340*[#  16]+0.164*[#   9]+0.100*[#  18]+0.021*[#  14]
          +0.012*[#  10]+0.007*[#  15]
    |psi|^2 = 1.000
==== e(   7) =    11.43545 eV ==== 
     psi = 0.465*[#  18]+0.202*[#   9]+0.140*[#  16]+0.133*[#  11]+0.037*[#  14]
          +0.010*[#  17]+0.006*[#  12]+0.004*[#  10]+0.003*[#  15]
    |psi|^2 = 1.000
==== e(   8) =    11.97137 eV ==== 
     psi = 0.313*[#  16]+0.280*[#  11]+0.229*[#  13]+0.115*[#  12]+0.037*[#  17]
          +0.013*[#  14]+0.007*[#  15]+0.003*[#  10]+0.002*[#   9]
    |psi|^2 = 0.997
==== e(   9) =    11.98913 eV ==== 
     psi = 0.523*[#  14]+0.154*[#  12]+0.088*[#   9]+0.087*[#  13]+0.051*[#  17]
          +0.046*[#  16]+0.042*[#  11]+0.004*[#  15]+0.002*[#  10]
    |psi|^2 = 0.997
==== e(  10) =    12.83872 eV ==== 
     psi = 0.295*[#  14]+0.169*[#  11]+0.153*[#  13]+0.138*[#  12]+0.136*[#  16]
          +0.064*[#   9]+0.038*[#  17]+0.002*[#   1]
    |psi|^2 = 0.998
==== e(  11) =    14.13341 eV ==== 
     psi = 0.331*[#  15]+0.208*[#  12]+0.203*[#  10]+0.190*[#  13]+0.056*[#  17]
          +0.006*[#  11]+0.004*[#  16]
    |psi|^2 = 0.998
==== e(  12) =    14.14799 eV ==== 
     psi = 0.337*[#  13]+0.279*[#  15]+0.170*[#  10]+0.158*[#  12]+0.044*[#  17]
          +0.008*[#  14]+0.002*[#   9]
    |psi|^2 = 0.998
==== e(  13) =    33.43512 eV ==== 
     psi = 0.027*[#   3]+0.010*[#   7]+0.008*[#   6]+0.007*[#   4]+0.002*[#   8]
          
    |psi|^2 = 0.055
==== e(  14) =    33.46211 eV ==== 
     psi = 0.027*[#   8]+0.010*[#   4]+0.007*[#   7]+0.003*[#   3]
    |psi|^2 = 0.046
==== e(  15) =    33.62567 eV ==== 
     psi = 0.018*[#   4]+0.009*[#   7]+0.009*[#   6]+0.005*[#   3]+0.002*[#   5]
          +0.001*[#  12]
    |psi|^2 = 0.045
==== e(  16) =    33.65044 eV ==== 
     psi = 0.021*[#   5]+0.009*[#   6]+0.004*[#   3]+0.001*[#  13]
    |psi|^2 = 0.038

 k =  -0.1250000000 -0.1250000000  0.3750000000
==== e(   1) =     7.18194 eV ==== 
     psi = 0.342*[#   7]+0.207*[#   2]+0.172*[#   4]+0.061*[#   8]+0.044*[#  16]
          +0.041*[#   3]+0.032*[#  17]+0.030*[#  11]+0.025*[#  10]+0.020*[#   6]
          +0.016*[#  15]+0.008*[#  12]
    |psi|^2 = 0.998
==== e(   2) =     7.45723 eV ==== 
     psi = 0.368*[#   6]+0.222*[#   1]+0.185*[#   3]+0.067*[#   5]+0.045*[#   4]
          +0.024*[#  15]+0.023*[#   7]+0.019*[#  14]+0.016*[#  10]+0.014*[#  11]
          +0.009*[#  16]+0.005*[#   9]
    |psi|^2 = 0.996
==== e(   3) =     9.86611 eV ==== 
     psi = 0.235*[#  17]+0.193*[#   9]+0.180*[#  18]+0.170*[#  10]+0.107*[#  15]
          +0.063*[#  12]+0.045*[#  14]+0.004*[#   8]+0.003*[#   3]+0.001*[#   6]
          
    |psi|^2 = 0.999
==== e(   4) =    10.08962 eV ==== 
     psi = 0.235*[#  18]+0.202*[#   9]+0.172*[#  10]+0.152*[#  17]+0.107*[#  15]
          +0.046*[#  14]+0.041*[#  12]+0.019*[#   7]+0.010*[#   4]+0.005*[#   8]
          +0.004*[#   3]+0.003*[#   2]+0.002*[#   6]
    |psi|^2 = 0.999
==== e(   5) =    11.03705 eV ==== 
     psi = 0.299*[#  18]+0.241*[#   9]+0.181*[#  17]+0.109*[#  10]+0.067*[#  15]
          +0.063*[#  12]+0.040*[#  14]
    |psi|^2 = 1.000
==== e(   6) =    11.68478 eV ==== 
     psi = 0.592*[#  11]+0.144*[#  14]+0.143*[#  13]+0.048*[#  17]+0.024*[#  18]
          +0.016*[#  10]+0.010*[#   4]+0.008*[#  15]+0.004*[#  16]+0.003*[#  12]
          +0.003*[#   5]+0.002*[#   6]+0.001*[#   2]
    |psi|^2 = 0.997
==== e(   7) =    11.70297 eV ==== 
     psi = 0.222*[#   9]+0.218*[#  12]+0.185*[#  16]+0.133*[#  14]+0.110*[#  18]
          +0.062*[#  10]+0.033*[#  15]+0.018*[#  11]+0.006*[#   5]+0.005*[#  17]
          +0.002*[#   3]+0.001*[#  13]+0.001*[#   6]
    |psi|^2 = 0.998
==== e(   8) =    11.81131 eV ==== 
     psi = 0.258*[#  16]+0.235*[#  14]+0.169*[#  13]+0.133*[#  17]+0.091*[#  12]
          +0.031*[#  11]+0.029*[#  18]+0.014*[#  15]+0.013*[#  10]+0.010*[#   6]
          +0.004*[#   3]+0.004*[#   5]+0.003*[#   4]+0.001*[#   7]+0.001*[#   9]
          
    |psi|^2 = 0.998
==== e(   9) =    12.03557 eV ==== 
     psi = 0.357*[#  16]+0.134*[#  11]+0.121*[#  18]+0.072*[#  17]+0.065*[#   9]
          +0.052*[#   7]+0.049*[#  10]+0.046*[#  14]+0.028*[#  15]+0.020*[#   4]
          +0.018*[#   2]+0.012*[#   8]+0.008*[#  12]+0.008*[#   3]+0.006*[#  13]
          +0.003*[#   6]
    |psi|^2 = 0.999
==== e(  10) =    13.41784 eV ==== 
     psi = 0.340*[#  13]+0.321*[#  12]+0.127*[#  14]+0.088*[#  17]+0.049*[#  11]
          +0.040*[#  16]+0.030*[#   9]
    |psi|^2 = 0.996
==== e(  11) =    13.79422 eV ==== 
     psi = 0.327*[#  13]+0.172*[#  12]+0.156*[#  14]+0.125*[#  11]+0.097*[#  16]
          +0.047*[#  17]+0.037*[#   9]+0.010*[#  15]+0.009*[#   6]+0.006*[#  10]
          +0.005*[#   3]+0.005*[#   5]+0.002*[#   4]+0.002*[#   7]
    |psi|^2 = 0.999
==== e(  12) =    14.62756 eV ==== 
     psi = 0.585*[#  15]+0.359*[#  10]+0.019*[#   6]+0.009*[#   3]+0.008*[#   1]
          +0.006*[#  13]+0.004*[#  12]+0.004*[#   5]+0.003*[#   4]+0.001*[#   7]
          +0.001*[#  17]
    |psi|^2 = 0.999
==== e(  13) =    28.14620 eV ==== 
     psi = 0.361*[#   8]+0.270*[#   3]+0.129*[#   6]+0.002*[#  18]+0.002*[#  17]
          +0.001*[#   9]+0.001*[#  10]
    |psi|^2 = 0.768
==== e(  14) =    28.73672 eV ==== 
     psi = 0.346*[#   5]+0.267*[#   4]+0.117*[#   7]+0.006*[#  13]+0.005*[#   2]
          +0.005*[#  12]+0.004*[#  14]+0.003*[#  11]+0.002*[#  16]+0.001*[#   8]
          
    |psi|^2 = 0.761
==== e(  15) =    29.06993 eV ==== 
     psi = 0.492*[#   2]+0.147*[#   8]+0.084*[#   3]+0.037*[#   6]+0.021*[#   7]
          +0.005*[#   5]+0.002*[#   4]+0.002*[#  17]+0.001*[#  10]
    |psi|^2 = 0.794
==== e(  16) =    29.60900 eV ==== 
     psi = 0.499*[#   1]+0.138*[#   5]+0.080*[#   4]+0.035*[#   7]+0.014*[#   6]
          +0.008*[#   3]+0.005*[#  14]+0.003*[#  11]+0.002*[#  16]+0.001*[#   9]
          
    |psi|^2 = 0.785

 k =  -0.1250000000 -0.2500000000  0.5000000000
==== e(   1) =     8.28091 eV ==== 
     psi = 0.157*[#  17]+0.123*[#  10]+0.114*[#   2]+0.108*[#   7]+0.104*[#  16]
          +0.079*[#  15]+0.072*[#  11]+0.055*[#   4]+0.052*[#  18]+0.044*[#   9]
          +0.041*[#  12]+0.020*[#   8]+0.014*[#   3]+0.011*[#  14]+0.007*[#   6]
          
    |psi|^2 = 0.999
==== e(   2) =     9.17841 eV ==== 
     psi = 0.191*[#   6]+0.172*[#   1]+0.114*[#  14]+0.096*[#   3]+0.093*[#  11]
          +0.073*[#  15]+0.056*[#  16]+0.055*[#  10]+0.038*[#   5]+0.032*[#   9]
          +0.026*[#   4]+0.018*[#  13]+0.016*[#  12]+0.012*[#   7]+0.003*[#  17]
          
    |psi|^2 = 0.997
==== e(   3) =     9.57482 eV ==== 
     psi = 0.205*[#  18]+0.204*[#   9]+0.191*[#  17]+0.146*[#  10]+0.096*[#  15]
          +0.050*[#  12]+0.050*[#  14]+0.014*[#   8]+0.010*[#   3]+0.008*[#   7]
          +0.008*[#  16]+0.005*[#  11]+0.004*[#   4]+0.003*[#   2]+0.003*[#   6]
          
    |psi|^2 = 1.000
==== e(   4) =    10.10800 eV ==== 
     psi = 0.285*[#  18]+0.224*[#   9]+0.089*[#  16]+0.070*[#   7]+0.062*[#  11]
          +0.052*[#  14]+0.044*[#  10]+0.035*[#   4]+0.034*[#  17]+0.029*[#  15]
          +0.025*[#   8]+0.020*[#   3]+0.012*[#   2]+0.009*[#  12]+0.008*[#   6]
          
    |psi|^2 = 0.999
==== e(   5) =    11.25250 eV ==== 
     psi = 0.217*[#  12]+0.186*[#  11]+0.141*[#  14]+0.140*[#  13]+0.129*[#   9]
          +0.058*[#  16]+0.026*[#   5]+0.025*[#  18]+0.019*[#  10]+0.018*[#   4]
          +0.014*[#  15]+0.009*[#   6]+0.007*[#   7]+0.004*[#   3]+0.003*[#  17]
          +0.001*[#   1]
    |psi|^2 = 0.998
==== e(   6) =    11.34519 eV ==== 
     psi = 0.238*[#  17]+0.171*[#  18]+0.139*[#  10]+0.106*[#  14]+0.103*[#  16]
          +0.080*[#   9]+0.073*[#  15]+0.034*[#  13]+0.020*[#  11]+0.016*[#  12]
          +0.006*[#   4]+0.004*[#   5]+0.003*[#   6]+0.002*[#   7]+0.002*[#   3]
          +0.002*[#   8]
    |psi|^2 = 0.999
==== e(   7) =    11.63963 eV ==== 
     psi = 0.252*[#  13]+0.201*[#  12]+0.100*[#  11]+0.094*[#  14]+0.074*[#   6]
          +0.060*[#  17]+0.039*[#  16]+0.037*[#   3]+0.034*[#   5]+0.033*[#  15]
          +0.027*[#   4]+0.021*[#   9]+0.010*[#   7]+0.006*[#  10]+0.004*[#  18]
          +0.003*[#   1]
    |psi|^2 = 0.997
==== e(   8) =    12.08478 eV ==== 
     psi = 0.263*[#  16]+0.161*[#  18]+0.149*[#  11]+0.105*[#   9]+0.096*[#  17]
          +0.072*[#  10]+0.041*[#  15]+0.037*[#  14]+0.024*[#   7]+0.016*[#   2]
          +0.015*[#  12]+0.009*[#   4]+0.005*[#   8]+0.005*[#   3]+0.003*[#  13]
          
    |psi|^2 = 1.000
==== e(   9) =    13.64784 eV ==== 
     psi = 0.269*[#  13]+0.176*[#  12]+0.144*[#  14]+0.142*[#  11]+0.090*[#  17]
          +0.062*[#   9]+0.044*[#  16]+0.020*[#  10]+0.015*[#  15]+0.008*[#   7]
          +0.008*[#   4]+0.006*[#  18]+0.004*[#   2]+0.004*[#   6]+0.003*[#   8]
          +0.001*[#   3]
    |psi|^2 = 0.997
==== e(  10) =    13.71188 eV ==== 
     psi = 0.171*[#   7]+0.126*[#  16]+0.085*[#  18]+0.082*[#   4]+0.072*[#   2]
          +0.067*[#  10]+0.064*[#  12]+0.057*[#  17]+0.055*[#  14]+0.049*[#   8]
          +0.044*[#   9]+0.036*[#   3]+0.035*[#  15]+0.030*[#  11]+0.014*[#   6]
          +0.011*[#  13]
    |psi|^2 = 0.998
==== e(  11) =    14.48005 eV ==== 
     psi = 0.293*[#  15]+0.168*[#  10]+0.153*[#  13]+0.103*[#  12]+0.093*[#  14]
          +0.067*[#  11]+0.057*[#  16]+0.031*[#  17]+0.025*[#   9]+0.005*[#   1]
          +0.002*[#   6]
    |psi|^2 = 1.000
==== e(  12) =    15.53977 eV ==== 
     psi = 0.210*[#  15]+0.129*[#  10]+0.114*[#   6]+0.103*[#  13]+0.075*[#  12]
          +0.075*[#  14]+0.057*[#   3]+0.053*[#  11]+0.040*[#   1]+0.038*[#  16]
          +0.034*[#   5]+0.023*[#   4]+0.019*[#  17]+0.017*[#   9]+0.011*[#   7]
          
    |psi|^2 = 0.999
==== e(  13) =    23.04483 eV ==== 
     psi = 0.442*[#   2]+0.231*[#   8]+0.163*[#   3]+0.080*[#   6]+0.012*[#  17]
          +0.009*[#  10]+0.007*[#   7]+0.006*[#  15]+0.005*[#  18]+0.005*[#   4]
          +0.004*[#   9]+0.003*[#  12]
    |psi|^2 = 0.967
==== e(  14) =    23.92035 eV ==== 
     psi = 0.448*[#   1]+0.213*[#   5]+0.150*[#   4]+0.073*[#   7]+0.021*[#  14]
          +0.016*[#  11]+0.012*[#  13]+0.011*[#  16]+0.009*[#  12]+0.006*[#   6]
          +0.005*[#   9]+0.004*[#   3]+0.002*[#  17]
    |psi|^2 = 0.968
==== e(  15) =    26.88860 eV ==== 
     psi = 0.302*[#   8]+0.257*[#   2]+0.200*[#   3]+0.100*[#   6]+0.040*[#   7]
          +0.020*[#   4]+0.003*[#  17]+0.002*[#  10]+0.002*[#  15]+0.001*[#  18]
          +0.001*[#   9]
    |psi|^2 = 0.931
==== e(  16) =    27.47134 eV ==== 
     psi = 0.298*[#   5]+0.252*[#   1]+0.197*[#   4]+0.099*[#   7]+0.038*[#   6]
          +0.020*[#   3]+0.006*[#  14]+0.004*[#  11]+0.004*[#  13]+0.003*[#  12]
          +0.003*[#  16]+0.002*[#   9]
    |psi|^2 = 0.927

 k =  -0.1250000000  0.6250000000 -0.3750000000
==== e(   1) =     8.34191 eV ==== 
     psi = 0.197*[#  17]+0.152*[#  10]+0.149*[#  18]+0.128*[#   9]+0.097*[#  15]
          +0.065*[#   2]+0.060*[#  16]+0.051*[#  12]+0.041*[#  11]+0.031*[#  14]
          +0.010*[#   8]+0.007*[#   3]+0.005*[#   7]+0.003*[#   6]+0.003*[#   4]
          
    |psi|^2 = 1.000
==== e(   2) =     9.58936 eV ==== 
     psi = 0.237*[#  18]+0.209*[#   9]+0.173*[#  17]+0.159*[#  10]+0.091*[#  15]
          +0.058*[#  14]+0.052*[#  12]+0.007*[#  16]+0.005*[#  11]+0.004*[#   8]
          +0.002*[#   3]+0.001*[#   6]
    |psi|^2 = 1.000
==== e(   3) =     9.68900 eV ==== 
     psi = 0.199*[#  14]+0.177*[#  11]+0.112*[#  13]+0.110*[#   1]+0.093*[#  16]
          +0.090*[#  12]+0.068*[#   9]+0.048*[#  15]+0.027*[#  17]+0.026*[#  10]
          +0.017*[#   5]+0.011*[#   4]+0.009*[#   6]+0.007*[#   7]+0.004*[#   3]
          
    |psi|^2 = 0.997
==== e(   4) =    10.24589 eV ==== 
     psi = 0.331*[#  16]+0.214*[#  11]+0.119*[#  18]+0.082*[#   9]+0.057*[#   7]
          +0.043*[#   8]+0.032*[#   3]+0.032*[#   4]+0.027*[#  14]+0.019*[#  17]
          +0.014*[#  10]+0.014*[#   6]+0.010*[#  15]+0.005*[#  12]
    |psi|^2 = 0.999
==== e(   5) =    11.23779 eV ==== 
     psi = 0.246*[#  12]+0.226*[#  13]+0.172*[#  11]+0.142*[#  14]+0.089*[#   9]
          +0.066*[#  16]+0.017*[#  17]+0.010*[#  10]+0.008*[#   5]+0.007*[#  18]
          +0.005*[#  15]+0.005*[#   4]+0.002*[#   6]+0.001*[#   7]
    |psi|^2 = 0.997
==== e(   6) =    11.43406 eV ==== 
     psi = 0.211*[#  17]+0.205*[#  18]+0.136*[#  10]+0.126*[#   9]+0.113*[#  16]
          +0.076*[#  14]+0.063*[#  15]+0.024*[#  11]+0.019*[#  12]+0.014*[#  13]
          +0.009*[#   2]+0.001*[#   7]+0.001*[#   6]
    |psi|^2 = 1.000
==== e(   7) =    11.73783 eV ==== 
     psi = 0.208*[#  15]+0.136*[#   6]+0.117*[#  10]+0.102*[#   5]+0.089*[#  13]
          +0.074*[#   4]+0.074*[#   3]+0.062*[#  12]+0.034*[#   7]+0.030*[#  14]
          +0.028*[#  17]+0.021*[#  11]+0.013*[#  16]+0.006*[#   9]
    |psi|^2 = 0.997
==== e(   8) =    12.44685 eV ==== 
     psi = 0.225*[#  18]+0.157*[#   9]+0.150*[#  17]+0.115*[#  10]+0.084*[#  16]
          +0.081*[#  15]+0.052*[#  11]+0.047*[#  14]+0.037*[#  12]+0.016*[#   7]
          +0.012*[#   8]+0.009*[#   3]+0.009*[#   4]+0.004*[#   6]
    |psi|^2 = 1.000
==== e(   9) =    13.80658 eV ==== 
     psi = 0.239*[#  13]+0.189*[#  12]+0.152*[#  14]+0.097*[#  15]+0.097*[#  11]
          +0.069*[#  16]+0.058*[#  10]+0.052*[#  17]+0.038*[#   9]+0.006*[#   1]
          
    |psi|^2 = 0.998
==== e(  10) =    14.68980 eV ==== 
     psi = 0.208*[#  13]+0.161*[#  15]+0.152*[#  12]+0.122*[#  14]+0.104*[#  10]
          +0.096*[#  11]+0.064*[#  16]+0.039*[#  17]+0.028*[#   9]+0.008*[#   6]
          +0.006*[#   5]+0.004*[#   3]+0.004*[#   4]+0.002*[#   7]
    |psi|^2 = 1.000
==== e(  11) =    15.65426 eV ==== 
     psi = 0.250*[#   7]+0.187*[#   8]+0.132*[#   3]+0.132*[#   4]+0.063*[#   6]
          +0.048*[#  18]+0.044*[#  16]+0.035*[#   9]+0.028*[#  17]+0.024*[#  11]
          +0.019*[#  10]+0.016*[#  15]+0.009*[#  14]+0.007*[#  12]
    |psi|^2 = 0.995
==== e(  12) =    16.89379 eV ==== 
     psi = 0.179*[#   6]+0.135*[#   5]+0.096*[#  15]+0.094*[#   3]+0.094*[#   4]
          +0.090*[#  13]+0.066*[#  12]+0.060*[#  10]+0.049*[#  14]+0.045*[#   7]
          +0.035*[#  11]+0.025*[#  16]+0.017*[#  17]+0.012*[#   9]
    |psi|^2 = 0.997
==== e(  13) =    19.72327 eV ==== 
     psi = 0.726*[#   2]+0.054*[#   8]+0.037*[#   3]+0.036*[#   7]+0.035*[#  17]
          +0.024*[#  10]+0.018*[#   4]+0.018*[#   6]+0.018*[#  15]+0.008*[#  12]
          +0.006*[#  18]+0.005*[#   9]+0.003*[#  16]+0.002*[#  11]+0.001*[#  14]
          
    |psi|^2 = 0.990
==== e(  14) =    20.95255 eV ==== 
     psi = 0.685*[#   1]+0.052*[#  14]+0.047*[#   5]+0.037*[#  11]+0.033*[#   4]
          +0.033*[#   6]+0.025*[#  16]+0.017*[#   3]+0.016*[#   7]+0.013*[#  13]
          +0.012*[#   9]+0.010*[#  12]+0.005*[#  15]+0.003*[#  10]+0.003*[#  17]
          
    |psi|^2 = 0.991
==== e(  15) =    26.20618 eV ==== 
     psi = 0.354*[#   8]+0.235*[#   3]+0.151*[#   2]+0.119*[#   6]+0.048*[#   7]
          +0.024*[#   4]+0.003*[#  18]+0.002*[#   9]+0.002*[#  17]+0.001*[#  10]
          
    |psi|^2 = 0.943
==== e(  16) =    26.77754 eV ==== 
     psi = 0.348*[#   5]+0.231*[#   4]+0.149*[#   1]+0.117*[#   7]+0.049*[#   6]
          +0.025*[#   3]+0.007*[#  13]+0.005*[#  12]+0.003*[#  14]+0.002*[#  11]
          +0.001*[#  16]+0.001*[#  15]+0.001*[#  17]
    |psi|^2 = 0.941

 k =  -0.2500000000  0.2500000000  0.1250000000
==== e(   1) =     6.75370 eV ==== 
     psi = 0.292*[#   8]+0.236*[#   2]+0.195*[#   3]+0.097*[#   6]+0.051*[#   7]
          +0.034*[#  18]+0.028*[#   9]+0.026*[#   4]+0.009*[#  16]+0.007*[#  14]
          +0.006*[#  11]+0.006*[#  17]+0.005*[#  10]+0.003*[#  15]+0.002*[#  12]
          
    |psi|^2 = 0.998
==== e(   2) =     6.96507 eV ==== 
     psi = 0.306*[#   5]+0.246*[#   1]+0.204*[#   4]+0.102*[#   7]+0.053*[#   6]
          +0.026*[#   3]+0.020*[#  13]+0.016*[#  12]+0.005*[#  14]+0.004*[#  15]
          +0.004*[#  17]+0.004*[#  11]+0.003*[#  10]+0.002*[#  16]+0.001*[#   9]
          
    |psi|^2 = 0.996
==== e(   3) =     9.77191 eV ==== 
     psi = 0.366*[#  17]+0.311*[#  10]+0.193*[#  15]+0.098*[#  12]+0.016*[#  18]
          +0.011*[#   9]+0.003*[#  14]
    |psi|^2 = 0.999
==== e(   4) =     9.95388 eV ==== 
     psi = 0.263*[#  18]+0.254*[#   9]+0.108*[#  16]+0.078*[#  17]+0.077*[#  11]
          +0.059*[#  14]+0.055*[#  10]+0.034*[#  15]+0.022*[#   8]+0.021*[#  12]
          +0.015*[#   3]+0.007*[#   6]+0.004*[#   2]
    |psi|^2 = 0.999
==== e(   5) =    11.35310 eV ==== 
     psi = 0.537*[#  11]+0.207*[#  16]+0.204*[#   9]+0.019*[#  18]+0.014*[#  10]
          +0.007*[#  17]+0.005*[#  15]+0.004*[#  13]+0.001*[#  12]+0.001*[#  14]
          
    |psi|^2 = 0.999
==== e(   6) =    11.51095 eV ==== 
     psi = 0.378*[#  16]+0.198*[#  14]+0.185*[#   9]+0.153*[#  18]+0.038*[#  11]
          +0.035*[#  12]+0.006*[#  17]+0.003*[#  10]
    |psi|^2 = 0.997
==== e(   7) =    11.55496 eV ==== 
     psi = 0.365*[#  18]+0.270*[#  14]+0.184*[#   9]+0.072*[#  11]+0.065*[#  16]
          +0.013*[#  13]+0.013*[#  17]+0.008*[#  12]+0.006*[#  15]
    |psi|^2 = 0.999
==== e(   8) =    11.66233 eV ==== 
     psi = 0.304*[#  13]+0.297*[#  12]+0.083*[#  10]+0.072*[#  14]+0.056*[#  16]
          +0.041*[#  17]+0.037*[#  15]+0.033*[#  18]+0.029*[#  11]+0.017*[#   5]
          +0.013*[#   4]+0.009*[#   9]+0.004*[#   7]
    |psi|^2 = 0.996
==== e(   9) =    11.92949 eV ==== 
     psi = 0.347*[#  17]+0.194*[#  10]+0.169*[#  15]+0.113*[#  18]+0.040*[#   9]
          +0.034*[#  12]+0.034*[#  14]+0.022*[#   8]+0.014*[#   3]+0.010*[#  13]
          +0.008*[#   6]+0.006*[#   2]+0.006*[#   7]
    |psi|^2 = 0.999
==== e(  10) =    13.85780 eV ==== 
     psi = 0.343*[#  14]+0.224*[#  11]+0.165*[#  16]+0.078*[#   9]+0.069*[#  12]
          +0.055*[#  13]+0.018*[#  17]+0.016*[#   5]+0.010*[#   4]+0.005*[#   7]
          +0.005*[#  15]+0.003*[#   6]+0.003*[#  10]+0.002*[#   1]+0.002*[#   3]
          
    |psi|^2 = 0.998
==== e(  11) =    13.98138 eV ==== 
     psi = 0.536*[#  15]+0.324*[#  10]+0.076*[#  12]+0.040*[#  13]+0.019*[#  17]
          +0.001*[#  11]
    |psi|^2 = 0.998
==== e(  12) =    14.29466 eV ==== 
     psi = 0.546*[#  13]+0.336*[#  12]+0.093*[#  17]+0.008*[#  11]+0.006*[#  16]
          +0.005*[#  14]+0.003*[#  15]+0.001*[#   9]+0.001*[#  10]
    |psi|^2 = 0.999
==== e(  13) =    28.05920 eV ==== 
     psi = 0.285*[#   2]+0.147*[#   7]+0.102*[#   8]+0.082*[#   3]+0.073*[#   4]
          +0.034*[#   6]+0.002*[#  18]+0.002*[#   9]
    |psi|^2 = 0.730
==== e(  14) =    28.63352 eV ==== 
     psi = 0.277*[#   1]+0.147*[#   6]+0.096*[#   5]+0.078*[#   4]+0.074*[#   3]
          +0.032*[#   7]+0.006*[#  13]+0.005*[#  12]+0.004*[#  15]+0.003*[#  10]
          +0.001*[#  17]
    |psi|^2 = 0.722
==== e(  15) =    31.13056 eV ==== 
     psi = 0.130*[#   8]+0.091*[#   3]+0.037*[#   6]
    |psi|^2 = 0.259
==== e(  16) =    31.42637 eV ==== 
     psi = 0.124*[#   5]+0.088*[#   4]+0.033*[#   7]+0.001*[#  14]
    |psi|^2 = 0.250

 k =  -0.2500000000  0.7500000000 -0.3750000000
==== e(   1) =     9.02394 eV ==== 
     psi = 0.239*[#  17]+0.185*[#  10]+0.130*[#  16]+0.117*[#  15]+0.092*[#  11]
          +0.063*[#  12]+0.050*[#   2]+0.030*[#   7]+0.029*[#   9]+0.028*[#  18]
          +0.016*[#   4]+0.007*[#   8]+0.007*[#  14]+0.005*[#   3]+0.003*[#   6]
          
    |psi|^2 = 0.999
==== e(   2) =     9.25389 eV ==== 
     psi = 0.284*[#  18]+0.267*[#   9]+0.122*[#  17]+0.101*[#  10]+0.062*[#  15]
          +0.061*[#  14]+0.037*[#   8]+0.032*[#  12]+0.023*[#   3]+0.012*[#   6]
          
    |psi|^2 = 1.000
==== e(   3) =     9.78839 eV ==== 
     psi = 0.233*[#  18]+0.222*[#  16]+0.169*[#   9]+0.169*[#  11]+0.043*[#  14]
          +0.041*[#   7]+0.028*[#  10]+0.022*[#   4]+0.021*[#  17]+0.015*[#  15]
          +0.013*[#   8]+0.011*[#   3]+0.006*[#   6]+0.006*[#  12]
    |psi|^2 = 0.999
==== e(   4) =    10.36903 eV ==== 
     psi = 0.216*[#  14]+0.170*[#  11]+0.114*[#  15]+0.113*[#  16]+0.087*[#   1]
          +0.075*[#  10]+0.063*[#   9]+0.063*[#   6]+0.036*[#   3]+0.017*[#   5]
          +0.012*[#  13]+0.012*[#  12]+0.011*[#   4]+0.007*[#   7]+0.002*[#  17]
          
    |psi|^2 = 0.997
==== e(   5) =    10.88894 eV ==== 
     psi = 0.212*[#  13]+0.200*[#  12]+0.160*[#  14]+0.118*[#  11]+0.084*[#  16]
          +0.070*[#   5]+0.048*[#   4]+0.044*[#   9]+0.041*[#  17]+0.020*[#   7]
          
    |psi|^2 = 0.998
==== e(   6) =    11.35577 eV ==== 
     psi = 0.263*[#  13]+0.234*[#  12]+0.114*[#  10]+0.104*[#  15]+0.071*[#   6]
          +0.035*[#  11]+0.034*[#   3]+0.024*[#   5]+0.024*[#  17]+0.022*[#  14]
          +0.021*[#   4]+0.020*[#   9]+0.019*[#  16]+0.009*[#   7]+0.002*[#  18]
          
    |psi|^2 = 0.997
==== e(   7) =    11.63608 eV ==== 
     psi = 0.302*[#  17]+0.174*[#  18]+0.149*[#  10]+0.142*[#  15]+0.132*[#   9]
          +0.051*[#  14]+0.034*[#  12]+0.006*[#   3]+0.004*[#   8]+0.003*[#  13]
          
    |psi|^2 = 1.000
==== e(   8) =    12.07105 eV ==== 
     psi = 0.226*[#  18]+0.199*[#  16]+0.145*[#   9]+0.122*[#  11]+0.086*[#  17]
          +0.075*[#  10]+0.049*[#  15]+0.045*[#  14]+0.020*[#  12]+0.012*[#   7]
          +0.007*[#   2]+0.007*[#   4]+0.003*[#   8]+0.002*[#   3]+0.001*[#   6]
          
    |psi|^2 = 1.000
==== e(   9) =    13.92673 eV ==== 
     psi = 0.237*[#  13]+0.216*[#  14]+0.197*[#  12]+0.138*[#  11]+0.099*[#  16]
          +0.054*[#  17]+0.054*[#   9]+0.001*[#   5]
    |psi|^2 = 0.998
==== e(  10) =    14.39474 eV ==== 
     psi = 0.280*[#  15]+0.182*[#  13]+0.177*[#  10]+0.121*[#  12]+0.074*[#  14]
          +0.065*[#  11]+0.043*[#  16]+0.029*[#  17]+0.016*[#   9]+0.005*[#   1]
          +0.005*[#   6]+0.003*[#   3]
    |psi|^2 = 0.999
==== e(  11) =    16.85680 eV ==== 
     psi = 0.302*[#   7]+0.157*[#   4]+0.141*[#   2]+0.090*[#   8]+0.063*[#   3]
          +0.041*[#  16]+0.036*[#  17]+0.032*[#  18]+0.029*[#   6]+0.024*[#   9]
          +0.023*[#  10]+0.023*[#  11]+0.018*[#  15]+0.008*[#  12]+0.007*[#  14]
          
    |psi|^2 = 0.994
==== e(  12) =    18.13028 eV ==== 
     psi = 0.251*[#   6]+0.132*[#   3]+0.108*[#   1]+0.082*[#  15]+0.077*[#   5]
          +0.052*[#   4]+0.051*[#  13]+0.051*[#  10]+0.049*[#  14]+0.039*[#  12]
          +0.035*[#  11]+0.024*[#   7]+0.024*[#  16]+0.011*[#   9]+0.010*[#  17]
          
    |psi|^2 = 0.996
==== e(  13) =    21.17239 eV ==== 
     psi = 0.440*[#   8]+0.305*[#   3]+0.153*[#   6]+0.022*[#  17]+0.016*[#  10]
          +0.013*[#  18]+0.011*[#  15]+0.010*[#   9]+0.005*[#  12]+0.002*[#  14]
          
    |psi|^2 = 0.978
==== e(  14) =    22.12704 eV ==== 
     psi = 0.408*[#   5]+0.290*[#   4]+0.138*[#   7]+0.035*[#  14]+0.029*[#  13]
          +0.025*[#  11]+0.022*[#  12]+0.018*[#  16]+0.008*[#   9]+0.005*[#  17]
          +0.001*[#   2]
    |psi|^2 = 0.979
==== e(  15) =    22.43502 eV ==== 
     psi = 0.752*[#   2]+0.082*[#   8]+0.046*[#   3]+0.040*[#   7]+0.023*[#   6]
          +0.013*[#   4]+0.006*[#  17]+0.005*[#  18]+0.005*[#   9]+0.004*[#  10]
          +0.003*[#  15]
    |psi|^2 = 0.983
==== e(  16) =    23.21568 eV ==== 
     psi = 0.751*[#   1]+0.077*[#   5]+0.043*[#   4]+0.031*[#   6]+0.021*[#   7]
          +0.015*[#   3]+0.011*[#  14]+0.008*[#  13]+0.007*[#  11]+0.007*[#  12]
          +0.005*[#  16]+0.003*[#   9]+0.002*[#  17]+0.001*[#  15]
    |psi|^2 = 0.983

 k =  -0.3750000000  0.3750000000  0.1250000000
==== e(   1) =     7.94716 eV ==== 
     psi = 0.225*[#  18]+0.191*[#   9]+0.131*[#   2]+0.118*[#  16]+0.087*[#   8]
          +0.081*[#  11]+0.059*[#   3]+0.046*[#  14]+0.029*[#   6]+0.019*[#   7]
          +0.010*[#   4]+0.001*[#  17]+0.001*[#  10]
    |psi|^2 = 0.999
==== e(   2) =     8.77293 eV ==== 
     psi = 0.188*[#   1]+0.166*[#  13]+0.156*[#   5]+0.137*[#  12]+0.107*[#   4]
          +0.062*[#  15]+0.052*[#   7]+0.044*[#  10]+0.033*[#  17]+0.028*[#   6]
          +0.014*[#   3]+0.004*[#  14]+0.003*[#  11]+0.002*[#  16]
    |psi|^2 = 0.997
==== e(   3) =     9.43494 eV ==== 
     psi = 0.382*[#  17]+0.310*[#  10]+0.195*[#  15]+0.102*[#  12]+0.005*[#  18]
          +0.004*[#   9]
    |psi|^2 = 0.999
==== e(   4) =    10.65328 eV ==== 
     psi = 0.190*[#   8]+0.134*[#  17]+0.132*[#   3]+0.100*[#  10]+0.084*[#  16]
          +0.069*[#  11]+0.063*[#   6]+0.062*[#  15]+0.040*[#   2]+0.038*[#   9]
          +0.037*[#  18]+0.035*[#  12]+0.012*[#  14]+0.002*[#   7]
    |psi|^2 = 0.999
==== e(   5) =    11.08104 eV ==== 
     psi = 0.359*[#  11]+0.330*[#  14]+0.154*[#   9]+0.142*[#  16]+0.003*[#  13]
          +0.002*[#   5]+0.002*[#  17]+0.002*[#  12]+0.001*[#   4]
    |psi|^2 = 0.997
==== e(   6) =    11.52441 eV ==== 
     psi = 0.407*[#  16]+0.215*[#   9]+0.180*[#  11]+0.125*[#  14]+0.030*[#  18]
          +0.017*[#  10]+0.008*[#  17]+0.006*[#  15]+0.006*[#  12]+0.001*[#   8]
          
    |psi|^2 = 1.000
==== e(   7) =    11.64363 eV ==== 
     psi = 0.614*[#  18]+0.260*[#   9]+0.046*[#  14]+0.034*[#  11]+0.016*[#  16]
          +0.011*[#  12]+0.007*[#  17]+0.003*[#   5]+0.003*[#  13]+0.003*[#   4]
          +0.002*[#  15]
    |psi|^2 = 1.000
==== e(   8) =    11.76722 eV ==== 
     psi = 0.184*[#   5]+0.138*[#  13]+0.129*[#   4]+0.118*[#  12]+0.086*[#  14]
          +0.068*[#  15]+0.061*[#  16]+0.061*[#   7]+0.048*[#  10]+0.037*[#  11]
          +0.033*[#  17]+0.016*[#  18]+0.010*[#   9]+0.008*[#   1]
    |psi|^2 = 0.997
==== e(   9) =    13.27596 eV ==== 
     psi = 0.255*[#  17]+0.193*[#  10]+0.113*[#   8]+0.112*[#  15]+0.077*[#   3]
          +0.060*[#  12]+0.055*[#  18]+0.038*[#   6]+0.035*[#   9]+0.032*[#   2]
          +0.012*[#  14]+0.010*[#   7]+0.003*[#   4]+0.002*[#  13]+0.002*[#  16]
          
    |psi|^2 = 0.999
==== e(  10) =    14.06312 eV ==== 
     psi = 0.474*[#  15]+0.275*[#  10]+0.133*[#  12]+0.076*[#  13]+0.029*[#  17]
          +0.004*[#  11]+0.004*[#  14]+0.003*[#  16]+0.001*[#   9]
    |psi|^2 = 0.999
==== e(  11) =    14.43057 eV ==== 
     psi = 0.536*[#  13]+0.348*[#  12]+0.102*[#  17]+0.005*[#  14]+0.004*[#  15]
          +0.002*[#   9]+0.001*[#  10]
    |psi|^2 = 0.999
==== e(  12) =    15.10658 eV ==== 
     psi = 0.319*[#  14]+0.225*[#  11]+0.160*[#  16]+0.075*[#   9]+0.060*[#   5]
          +0.047*[#  13]+0.041*[#   4]+0.026*[#  12]+0.020*[#   7]+0.010*[#   1]
          +0.007*[#   6]+0.007*[#  17]+0.003*[#   3]
    |psi|^2 = 0.999
==== e(  13) =    22.67328 eV ==== 
     psi = 0.609*[#   2]+0.095*[#   8]+0.083*[#   7]+0.070*[#   3]+0.041*[#   4]
          +0.032*[#   6]+0.017*[#  18]+0.013*[#   9]+0.004*[#  16]+0.003*[#  14]
          +0.002*[#  11]
    |psi|^2 = 0.971
==== e(  14) =    23.58527 eV ==== 
     psi = 0.603*[#   1]+0.082*[#   5]+0.081*[#   6]+0.061*[#   4]+0.040*[#   3]
          +0.030*[#  13]+0.027*[#   7]+0.023*[#  12]+0.010*[#  15]+0.007*[#  10]
          +0.006*[#  17]
    |psi|^2 = 0.972
==== e(  15) =    29.46373 eV ==== 
     psi = 0.269*[#   8]+0.186*[#   3]+0.075*[#   6]
    |psi|^2 = 0.532
==== e(  16) =    29.74127 eV ==== 
     psi = 0.260*[#   5]+0.186*[#   4]+0.067*[#   7]+0.002*[#  14]+0.002*[#  11]
          
    |psi|^2 = 0.519

 k =  -0.3750000000  0.2500000000  0.2500000000
==== e(   1) =     8.24276 eV ==== 
     psi = 0.165*[#   8]+0.158*[#   2]+0.111*[#   3]+0.103*[#  18]+0.088*[#   9]
          +0.073*[#   7]+0.068*[#  17]+0.055*[#   6]+0.054*[#  10]+0.037*[#   4]
          +0.035*[#  15]+0.021*[#  14]+0.018*[#  12]+0.008*[#  16]+0.005*[#  11]
          
    |psi|^2 = 0.999
==== e(   2) =     8.73505 eV ==== 
     psi = 0.215*[#   5]+0.190*[#   1]+0.146*[#   4]+0.094*[#   6]+0.072*[#   7]
          +0.058*[#  13]+0.048*[#   3]+0.048*[#  12]+0.043*[#  14]+0.034*[#  11]
          +0.021*[#  16]+0.011*[#   9]+0.011*[#  17]+0.003*[#  15]+0.002*[#  10]
          
    |psi|^2 = 0.997
==== e(   3) =     9.47926 eV ==== 
     psi = 0.208*[#  18]+0.179*[#   9]+0.140*[#  17]+0.121*[#  10]+0.103*[#  16]
          +0.076*[#  15]+0.072*[#  11]+0.043*[#  14]+0.036*[#  12]+0.007*[#   7]
          +0.005*[#   8]+0.004*[#   4]+0.004*[#   3]+0.002*[#   6]
    |psi|^2 = 0.999
==== e(   4) =     9.67642 eV ==== 
     psi = 0.316*[#  17]+0.243*[#  10]+0.151*[#  15]+0.084*[#  12]+0.042*[#   9]
          +0.041*[#  18]+0.041*[#   8]+0.029*[#   3]+0.014*[#   6]+0.013*[#   2]
          +0.010*[#  14]+0.009*[#   7]+0.005*[#   4]+0.002*[#  16]
    |psi|^2 = 0.999
==== e(   5) =    11.11800 eV ==== 
     psi = 0.213*[#  13]+0.174*[#  12]+0.169*[#  11]+0.139*[#  14]+0.063*[#  15]
          +0.061*[#  16]+0.050*[#  10]+0.044*[#   9]+0.041*[#  17]+0.013*[#   6]
          +0.011*[#   5]+0.008*[#   3]+0.007*[#   4]+0.003*[#   7]
    |psi|^2 = 0.997
==== e(   6) =    11.20590 eV ==== 
     psi = 0.302*[#  11]+0.265*[#  14]+0.132*[#   9]+0.084*[#  12]+0.070*[#  13]
          +0.070*[#  16]+0.024*[#   5]+0.019*[#   4]+0.009*[#   7]+0.009*[#  17]
          +0.004*[#  15]+0.002*[#  10]+0.002*[#   6]+0.002*[#  18]
    |psi|^2 = 0.997
==== e(   7) =    11.46961 eV ==== 
     psi = 0.431*[#  16]+0.129*[#  11]+0.122*[#  18]+0.114*[#   9]+0.081*[#  14]
          +0.054*[#  17]+0.031*[#  10]+0.024*[#  15]+0.006*[#  12]+0.004*[#  13]
          +0.001*[#   5]
    |psi|^2 = 1.000
==== e(   8) =    11.67482 eV ==== 
     psi = 0.403*[#  18]+0.237*[#   9]+0.155*[#  16]+0.082*[#  11]+0.078*[#  14]
          +0.019*[#  17]+0.011*[#  10]+0.004*[#  15]+0.002*[#   2]+0.002*[#  12]
          +0.002*[#   8]+0.001*[#   3]
    |psi|^2 = 1.000
==== e(   9) =    13.47214 eV ==== 
     psi = 0.199*[#  17]+0.162*[#  10]+0.114*[#  18]+0.093*[#   8]+0.080*[#  15]
          +0.075*[#   9]+0.062*[#   3]+0.048*[#  12]+0.043*[#   2]+0.040*[#   7]
          +0.031*[#   6]+0.026*[#  14]+0.020*[#   4]+0.002*[#  16]+0.001*[#  11]
          +0.001*[#  13]
    |psi|^2 = 0.998
==== e(  10) =    14.05696 eV ==== 
     psi = 0.397*[#  15]+0.226*[#  10]+0.130*[#  12]+0.128*[#  13]+0.035*[#  17]
          +0.033*[#  14]+0.022*[#  11]+0.016*[#  16]+0.010*[#   9]
    |psi|^2 = 0.999
==== e(  11) =    14.41654 eV ==== 
     psi = 0.377*[#  13]+0.272*[#  12]+0.147*[#  15]+0.085*[#  10]+0.076*[#  17]
          +0.019*[#  14]+0.009*[#  11]+0.007*[#  16]+0.005*[#   9]
    |psi|^2 = 1.000
==== e(  12) =    15.29665 eV ==== 
     psi = 0.226*[#  14]+0.162*[#  11]+0.134*[#  13]+0.115*[#  16]+0.084*[#  12]
          +0.066*[#   5]+0.053*[#   9]+0.043*[#   4]+0.028*[#   6]+0.022*[#  17]
          +0.022*[#   7]+0.019*[#   1]+0.014*[#   3]+0.006*[#  15]+0.004*[#  10]
          
    |psi|^2 = 0.999
==== e(  13) =    25.60768 eV ==== 
     psi = 0.285*[#   7]+0.205*[#   8]+0.158*[#   3]+0.153*[#   4]+0.076*[#   6]
          +0.005*[#  18]+0.004*[#   9]+0.004*[#  17]+0.002*[#  10]+0.002*[#  16]
          +0.002*[#  15]+0.001*[#  11]+0.001*[#  14]
    |psi|^2 = 0.898
==== e(  14) =    26.26630 eV ==== 
     psi = 0.205*[#   3]+0.195*[#   6]+0.177*[#   5]+0.140*[#   4]+0.065*[#   7]
          +0.059*[#   2]+0.017*[#   8]+0.008*[#  13]+0.006*[#  12]+0.006*[#  14]
          +0.005*[#  15]+0.004*[#  10]+0.004*[#  11]+0.003*[#  16]+0.003*[#  17]
          +0.002*[#   9]
    |psi|^2 = 0.898
==== e(  15) =    26.36847 eV ==== 
     psi = 0.512*[#   2]+0.162*[#   8]+0.136*[#   6]+0.045*[#   3]+0.021*[#   5]
          +0.015*[#   4]+0.010*[#   7]+0.002*[#  15]+0.002*[#  12]+0.002*[#  18]
          +0.001*[#  14]+0.001*[#  17]
    |psi|^2 = 0.913
==== e(  16) =    26.96788 eV ==== 
     psi = 0.556*[#   1]+0.178*[#   5]+0.100*[#   4]+0.054*[#   7]+0.004*[#  13]
          +0.004*[#  14]+0.003*[#  11]+0.003*[#   6]+0.003*[#  12]+0.002*[#  16]
          
    |psi|^2 = 0.910

 k =   0.5000000000 -0.5000000000  0.1250000000
==== e(   1) =     8.02980 eV ==== 
     psi = 0.289*[#  18]+0.244*[#   9]+0.181*[#  16]+0.125*[#  11]+0.086*[#   2]
          +0.060*[#  14]+0.010*[#   7]+0.005*[#   4]
    |psi|^2 = 1.000
==== e(   2) =     9.27617 eV ==== 
     psi = 0.294*[#  13]+0.211*[#  12]+0.137*[#  10]+0.136*[#   1]+0.099*[#  15]
          +0.096*[#  17]+0.016*[#   6]+0.009*[#   3]
    |psi|^2 = 0.998
==== e(   3) =     9.30616 eV ==== 
     psi = 0.349*[#  17]+0.270*[#  10]+0.232*[#  15]+0.141*[#  12]+0.004*[#  13]
          +0.002*[#   1]+0.001*[#   6]+0.001*[#   8]
    |psi|^2 = 1.000
==== e(   4) =    10.92598 eV ==== 
     psi = 0.354*[#  14]+0.348*[#  11]+0.156*[#  16]+0.134*[#   9]+0.003*[#   5]
          +0.002*[#   4]
    |psi|^2 = 0.997
==== e(   5) =    11.57737 eV ==== 
     psi = 0.405*[#  16]+0.264*[#   9]+0.197*[#  11]+0.112*[#  14]+0.017*[#  18]
          +0.005*[#   2]
    |psi|^2 = 1.000
==== e(   6) =    11.64625 eV ==== 
     psi = 0.259*[#  17]+0.190*[#  10]+0.177*[#   8]+0.127*[#   3]+0.122*[#  15]
          +0.064*[#  12]+0.058*[#   6]
    |psi|^2 = 0.999
==== e(   7) =    11.68357 eV ==== 
     psi = 0.646*[#  18]+0.224*[#   9]+0.052*[#  14]+0.040*[#  16]+0.036*[#  11]
          
    |psi|^2 = 1.000
==== e(   8) =    12.49966 eV ==== 
     psi = 0.333*[#   5]+0.238*[#   4]+0.130*[#  14]+0.111*[#   7]+0.088*[#  11]
          +0.068*[#  16]+0.030*[#   9]
    |psi|^2 = 0.997
==== e(   9) =    14.12967 eV ==== 
     psi = 0.434*[#  15]+0.295*[#  10]+0.136*[#  12]+0.087*[#  13]+0.044*[#  17]
          +0.002*[#   1]
    |psi|^2 = 0.999
==== e(  10) =    14.48320 eV ==== 
     psi = 0.514*[#  13]+0.392*[#  12]+0.046*[#  17]+0.017*[#   8]+0.013*[#  10]
          +0.012*[#   3]+0.006*[#   6]
    |psi|^2 = 1.000
==== e(  11) =    14.60477 eV ==== 
     psi = 0.292*[#   8]+0.207*[#   3]+0.191*[#  17]+0.098*[#   6]+0.093*[#  15]
          +0.081*[#  10]+0.031*[#  13]+0.004*[#  12]
    |psi|^2 = 0.997
==== e(  12) =    15.94675 eV ==== 
     psi = 0.279*[#  14]+0.199*[#  11]+0.154*[#   5]+0.138*[#  16]+0.108*[#   4]
          +0.068*[#   9]+0.052*[#   7]
    |psi|^2 = 0.998
==== e(  13) =    19.62208 eV ==== 
     psi = 0.813*[#   2]+0.049*[#   7]+0.047*[#  18]+0.035*[#   9]+0.025*[#   4]
          +0.010*[#  14]+0.009*[#  16]+0.005*[#  11]
    |psi|^2 = 0.993
==== e(  14) =    20.91219 eV ==== 
     psi = 0.764*[#   1]+0.069*[#  13]+0.051*[#  12]+0.043*[#   6]+0.022*[#   3]
          +0.019*[#  15]+0.014*[#  17]+0.012*[#  10]
    |psi|^2 = 0.993
==== e(  15) =    28.85490 eV ==== 
     psi = 0.330*[#   8]+0.225*[#   3]+0.090*[#   6]
    |psi|^2 = 0.648
==== e(  16) =    29.10873 eV ==== 
     psi = 0.318*[#   5]+0.228*[#   4]+0.078*[#   7]+0.003*[#  14]+0.002*[#  11]
          +0.001*[#  16]
    |psi|^2 = 0.630

 k =   0.5000000000 -0.6250000000  0.2500000000
==== e(   1) =     8.64308 eV ==== 
     psi = 0.300*[#  18]+0.259*[#   9]+0.110*[#  16]+0.076*[#  11]+0.063*[#   2]
          +0.063*[#  14]+0.027*[#   7]+0.027*[#  17]+0.021*[#  10]+0.014*[#   4]
          +0.013*[#  15]+0.010*[#   8]+0.007*[#   3]+0.007*[#  12]+0.003*[#   6]
          
    |psi|^2 = 1.000
==== e(   2) =     9.32858 eV ==== 
     psi = 0.337*[#  17]+0.276*[#  10]+0.172*[#  15]+0.087*[#  12]+0.038*[#  16]
          +0.027*[#  11]+0.019*[#  18]+0.016*[#   9]+0.008*[#   8]+0.006*[#   7]
          +0.005*[#   3]+0.004*[#  14]+0.003*[#   4]+0.002*[#   6]
    |psi|^2 = 1.000
==== e(   3) =     9.86726 eV ==== 
     psi = 0.284*[#  13]+0.245*[#  12]+0.110*[#   1]+0.069*[#  15]+0.054*[#  10]
          +0.050*[#  17]+0.048*[#   6]+0.030*[#   5]+0.022*[#   3]+0.022*[#   4]
          +0.021*[#  14]+0.017*[#  11]+0.010*[#  16]+0.010*[#   7]+0.005*[#   9]
          
    |psi|^2 = 0.998
==== e(   4) =    10.26009 eV ==== 
     psi = 0.239*[#  17]+0.171*[#  10]+0.112*[#  15]+0.110*[#   8]+0.083*[#  18]
          +0.081*[#   3]+0.071*[#   9]+0.056*[#  12]+0.036*[#   6]+0.017*[#   2]
          +0.013*[#  14]+0.004*[#  16]+0.003*[#  11]+0.002*[#   7]
    |psi|^2 = 0.999
==== e(   5) =    10.88150 eV ==== 
     psi = 0.324*[#  14]+0.305*[#  11]+0.143*[#  16]+0.104*[#   9]+0.026*[#  15]
          +0.017*[#  13]+0.016*[#   5]+0.014*[#  10]+0.012*[#  12]+0.010*[#   4]
          +0.008*[#   6]+0.006*[#  17]+0.006*[#   3]+0.005*[#   7]
    |psi|^2 = 0.998
==== e(   6) =    11.43622 eV ==== 
     psi = 0.201*[#  14]+0.200*[#  11]+0.162*[#   5]+0.119*[#   4]+0.059*[#   9]
          +0.057*[#  13]+0.053*[#   7]+0.053*[#  12]+0.052*[#  16]+0.011*[#   1]
          +0.009*[#  15]+0.008*[#  10]+0.007*[#  17]+0.006*[#  18]
    |psi|^2 = 0.998
==== e(   7) =    11.60183 eV ==== 
     psi = 0.480*[#  16]+0.180*[#  11]+0.153*[#   9]+0.069*[#  18]+0.053*[#  14]
          +0.030*[#  17]+0.008*[#  10]+0.008*[#  15]+0.006*[#  12]+0.004*[#   5]
          +0.002*[#   7]+0.002*[#   4]+0.001*[#   2]+0.001*[#  13]
    |psi|^2 = 1.000
==== e(   8) =    11.77472 eV ==== 
     psi = 0.461*[#  18]+0.231*[#   9]+0.079*[#  14]+0.056*[#  17]+0.049*[#  10]
          +0.042*[#  16]+0.029*[#  15]+0.024*[#  11]+0.010*[#  12]+0.007*[#   8]
          +0.004*[#   3]+0.003*[#   2]+0.002*[#   6]
    |psi|^2 = 1.000
==== e(   9) =    14.18714 eV ==== 
     psi = 0.448*[#  15]+0.286*[#  10]+0.119*[#  12]+0.081*[#  13]+0.032*[#  17]
          +0.016*[#  14]+0.008*[#  11]+0.006*[#  16]+0.003*[#   9]
    |psi|^2 = 0.999
==== e(  10) =    14.48315 eV ==== 
     psi = 0.465*[#  13]+0.309*[#  12]+0.078*[#  17]+0.035*[#  15]+0.033*[#  14]
          +0.026*[#  11]+0.024*[#  10]+0.019*[#  16]+0.009*[#   9]
    |psi|^2 = 1.000
==== e(  11) =    15.83807 eV ==== 
     psi = 0.256*[#   8]+0.179*[#   3]+0.109*[#  17]+0.108*[#   2]+0.087*[#   6]
          +0.071*[#  10]+0.057*[#  15]+0.033*[#  18]+0.026*[#   7]+0.024*[#   9]
          +0.023*[#  12]+0.013*[#   4]+0.007*[#  14]+0.002*[#  16]+0.001*[#  11]
          
    |psi|^2 = 0.997
==== e(  12) =    17.18518 eV ==== 
     psi = 0.201*[#   5]+0.163*[#  14]+0.139*[#   4]+0.115*[#  11]+0.081*[#  16]
          +0.068*[#   1]+0.067*[#   7]+0.048*[#  13]+0.039*[#   9]+0.034*[#  12]
          +0.018*[#   6]+0.009*[#   3]+0.009*[#  17]+0.003*[#  15]+0.002*[#  10]
          
    |psi|^2 = 0.997
==== e(  13) =    21.02937 eV ==== 
     psi = 0.469*[#   2]+0.137*[#   7]+0.117*[#   8]+0.083*[#   3]+0.069*[#   4]
          +0.039*[#   6]+0.027*[#  18]+0.020*[#   9]+0.006*[#  14]+0.005*[#  16]
          +0.003*[#  17]+0.003*[#  11]+0.002*[#  10]+0.002*[#  15]
    |psi|^2 = 0.983
==== e(  14) =    22.01151 eV ==== 
     psi = 0.469*[#   1]+0.128*[#   6]+0.099*[#   5]+0.071*[#   4]+0.065*[#   3]
          +0.045*[#  13]+0.034*[#  12]+0.033*[#   7]+0.011*[#  15]+0.009*[#  17]
          +0.007*[#  10]+0.005*[#  14]+0.003*[#  11]+0.002*[#  16]+0.001*[#   9]
          
    |psi|^2 = 0.983
==== e(  15) =    24.82474 eV ==== 
     psi = 0.259*[#   2]+0.206*[#   8]+0.183*[#   7]+0.133*[#   3]+0.092*[#   4]
          +0.064*[#   6]+0.006*[#  17]+0.004*[#  10]+0.003*[#  15]+0.001*[#  12]
          
    |psi|^2 = 0.952
==== e(  16) =    25.44844 eV ==== 
     psi = 0.255*[#   1]+0.206*[#   5]+0.172*[#   6]+0.134*[#   4]+0.087*[#   3]
          +0.063*[#   7]+0.011*[#  14]+0.008*[#  11]+0.006*[#  16]+0.003*[#   9]
          +0.002*[#  15]+0.002*[#  10]
    |psi|^2 = 0.951

 k =   0.3750000000 -0.6250000000  0.3750000000
==== e(   1) =     8.98354 eV ==== 
     psi = 0.253*[#  17]+0.199*[#  10]+0.153*[#  18]+0.136*[#   9]+0.126*[#  15]
          +0.066*[#  12]+0.033*[#  14]+0.024*[#   2]+0.003*[#   8]+0.002*[#   3]
          +0.002*[#   7]
    |psi|^2 = 1.000
==== e(   2) =     9.62836 eV ==== 
     psi = 0.274*[#   9]+0.237*[#  10]+0.148*[#  15]+0.074*[#   8]+0.073*[#  16]
          +0.063*[#  14]+0.053*[#  11]+0.027*[#   7]+0.020*[#  17]+0.013*[#   4]
          +0.005*[#  12]+0.004*[#  18]+0.004*[#   3]+0.002*[#   6]
    |psi|^2 = 1.000
==== e(   3) =     9.66191 eV ==== 
     psi = 0.323*[#  18]+0.304*[#  17]+0.081*[#  12]+0.075*[#  16]+0.057*[#  11]
          +0.053*[#   3]+0.027*[#   7]+0.026*[#   6]+0.019*[#  10]+0.014*[#   4]
          +0.011*[#  15]+0.006*[#   8]+0.004*[#   9]+0.001*[#  14]
    |psi|^2 = 1.000
==== e(   4) =    10.42107 eV ==== 
     psi = 0.240*[#  14]+0.202*[#  11]+0.151*[#  13]+0.134*[#  12]+0.113*[#  16]
          +0.072*[#   9]+0.041*[#   1]+0.027*[#  17]+0.005*[#   5]+0.004*[#   6]
          +0.004*[#   4]+0.002*[#   7]+0.002*[#   3]
    |psi|^2 = 0.998
==== e(   5) =    10.99868 eV ==== 
     psi = 0.256*[#  11]+0.215*[#  12]+0.140*[#  16]+0.131*[#   5]+0.057*[#  17]
          +0.044*[#   6]+0.040*[#  15]+0.034*[#  10]+0.025*[#   3]+0.024*[#  14]
          +0.014*[#  13]+0.008*[#   4]+0.006*[#   9]+0.003*[#   7]+0.001*[#  18]
          
    |psi|^2 = 0.998
==== e(   6) =    11.01323 eV ==== 
     psi = 0.308*[#  14]+0.268*[#  13]+0.093*[#   4]+0.080*[#   9]+0.051*[#  15]
          +0.047*[#   6]+0.042*[#   7]+0.028*[#  10]+0.026*[#   3]+0.015*[#  11]
          +0.015*[#  12]+0.011*[#  16]+0.009*[#   5]+0.005*[#  17]
    |psi|^2 = 0.998
==== e(   7) =    11.71225 eV ==== 
     psi = 0.302*[#   9]+0.232*[#  16]+0.136*[#  17]+0.133*[#  11]+0.093*[#  14]
          +0.051*[#  18]+0.033*[#  12]+0.009*[#  10]+0.004*[#  15]+0.003*[#   3]
          +0.002*[#   6]
    |psi|^2 = 1.000
==== e(   8) =    11.75110 eV ==== 
     psi = 0.415*[#  18]+0.239*[#  16]+0.125*[#  11]+0.095*[#  10]+0.064*[#  15]
          +0.033*[#   9]+0.011*[#  17]+0.010*[#  14]+0.004*[#   8]+0.002*[#   7]
          
    |psi|^2 = 1.000
==== e(   9) =    14.34638 eV ==== 
     psi = 0.306*[#  12]+0.254*[#  15]+0.159*[#  10]+0.094*[#  14]+0.079*[#  17]
          +0.077*[#  13]+0.022*[#   9]+0.004*[#  11]+0.004*[#  16]
    |psi|^2 = 0.999
==== e(  10) =    14.38127 eV ==== 
     psi = 0.399*[#  13]+0.245*[#  15]+0.156*[#  10]+0.066*[#  11]+0.060*[#  12]
          +0.047*[#  16]+0.016*[#  17]+0.007*[#  14]+0.002*[#   9]
    |psi|^2 = 0.999
==== e(  11) =    19.26305 eV ==== 
     psi = 0.364*[#   3]+0.186*[#   7]+0.172*[#   6]+0.098*[#   4]+0.061*[#  17]
          +0.040*[#  18]+0.036*[#   8]+0.013*[#  12]+0.005*[#   9]+0.004*[#  16]
          +0.003*[#  10]+0.002*[#  11]+0.002*[#  15]+0.002*[#  14]
    |psi|^2 = 0.987
==== e(  12) =    19.28551 eV ==== 
     psi = 0.531*[#   8]+0.189*[#   7]+0.099*[#   4]+0.041*[#  10]+0.030*[#  15]
          +0.029*[#   9]+0.027*[#   3]+0.013*[#   6]+0.009*[#  14]+0.007*[#  18]
          +0.004*[#  17]+0.004*[#  16]+0.002*[#  11]
    |psi|^2 = 0.987
==== e(  13) =    20.25761 eV ==== 
     psi = 0.322*[#   4]+0.166*[#   6]+0.161*[#   7]+0.094*[#  14]+0.085*[#   3]
          +0.072*[#  13]+0.035*[#   5]+0.023*[#   9]+0.009*[#  15]+0.007*[#  10]
          +0.005*[#  12]+0.005*[#  11]+0.003*[#  16]+0.001*[#  17]
    |psi|^2 = 0.988
==== e(  14) =    20.26244 eV ==== 
     psi = 0.476*[#   5]+0.179*[#   6]+0.085*[#   3]+0.067*[#  11]+0.055*[#  12]
          +0.046*[#  16]+0.021*[#   4]+0.014*[#  17]+0.013*[#   7]+0.010*[#  15]
          +0.008*[#  13]+0.006*[#  10]+0.006*[#  14]+0.002*[#   9]
    |psi|^2 = 0.988
==== e(  15) =    21.62912 eV ==== 
     psi = 0.925*[#   2]+0.012*[#   8]+0.008*[#   7]+0.008*[#   3]+0.008*[#  17]
          +0.006*[#  10]+0.005*[#  18]+0.004*[#   6]+0.004*[#  15]+0.004*[#   4]
          +0.004*[#   9]+0.002*[#  12]+0.001*[#  14]
    |psi|^2 = 0.991
==== e(  16) =    22.48895 eV ==== 
     psi = 0.906*[#   1]+0.014*[#  14]+0.011*[#   5]+0.010*[#  11]+0.009*[#  13]
          +0.008*[#   6]+0.007*[#   4]+0.007*[#  16]+0.007*[#  12]+0.004*[#   3]
          +0.004*[#   7]+0.003*[#   9]+0.002*[#  17]
    |psi|^2 = 0.991

 k =   0.0000000000  0.0000000000  0.3750000000
==== e(   1) =     6.77165 eV ==== 
     psi = 0.451*[#   7]+0.240*[#   2]+0.226*[#   4]+0.049*[#  16]+0.033*[#  11]
          
    |psi|^2 = 0.998
==== e(   2) =     6.98519 eV ==== 
     psi = 0.465*[#   6]+0.253*[#   1]+0.233*[#   3]+0.027*[#  15]+0.018*[#  10]
          
    |psi|^2 = 0.997
==== e(   3) =    10.36949 eV ==== 
     psi = 0.482*[#   9]+0.412*[#  18]+0.105*[#  14]
    |psi|^2 = 0.999
==== e(   4) =    10.47926 eV ==== 
     psi = 0.617*[#  10]+0.382*[#  15]
    |psi|^2 = 0.999
==== e(   5) =    10.54062 eV ==== 
     psi = 0.778*[#  17]+0.220*[#  12]
    |psi|^2 = 0.999
==== e(   6) =    11.06515 eV ==== 
     psi = 0.587*[#  18]+0.345*[#   9]+0.068*[#  14]
    |psi|^2 = 1.000
==== e(   7) =    11.96142 eV ==== 
     psi = 0.584*[#  11]+0.338*[#  16]+0.036*[#   7]+0.021*[#   4]+0.020*[#   2]
          
    |psi|^2 = 0.999
==== e(   8) =    12.28659 eV ==== 
     psi = 0.611*[#  16]+0.379*[#  11]+0.005*[#   7]+0.001*[#   2]
    |psi|^2 = 0.996
==== e(   9) =    12.33123 eV ==== 
     psi = 0.823*[#  14]+0.171*[#   9]+0.002*[#   5]
    |psi|^2 = 0.996
==== e(  10) =    12.77268 eV ==== 
     psi = 0.574*[#  12]+0.254*[#  13]+0.163*[#  17]
    |psi|^2 = 0.991
==== e(  11) =    13.00139 eV ==== 
     psi = 0.740*[#  13]+0.201*[#  12]+0.057*[#  17]
    |psi|^2 = 0.998
==== e(  12) =    14.70728 eV ==== 
     psi = 0.590*[#  15]+0.364*[#  10]+0.023*[#   6]+0.011*[#   1]+0.011*[#   3]
          
    |psi|^2 = 1.000
==== e(  13) =    31.07784 eV ==== 
 
    |psi|^2 = 0.001
==== e(  14) =    31.43966 eV ==== 
     psi = 0.005*[#  13]+0.004*[#  12]
    |psi|^2 = 0.010
==== e(  15) =    31.87531 eV ==== 
     psi = 0.267*[#   3]+0.122*[#   6]
    |psi|^2 = 0.391
==== e(  16) =    32.00899 eV ==== 
     psi = 0.347*[#   8]+0.001*[#  17]
    |psi|^2 = 0.348

 k =   0.0000000000 -0.1250000000  0.5000000000
==== e(   1) =     8.08762 eV ==== 
     psi = 0.277*[#   7]+0.181*[#  16]+0.142*[#   2]+0.142*[#   4]+0.125*[#  11]
          +0.037*[#  17]+0.029*[#  10]+0.019*[#  15]+0.010*[#   8]+0.009*[#  12]
          +0.008*[#  18]+0.007*[#   9]+0.007*[#   3]+0.003*[#   6]+0.002*[#  14]
          
    |psi|^2 = 0.998
==== e(   2) =     8.68418 eV ==== 
     psi = 0.361*[#   6]+0.184*[#   3]+0.180*[#   1]+0.105*[#  15]+0.074*[#  10]
          +0.022*[#  14]+0.018*[#  11]+0.015*[#   5]+0.011*[#  16]+0.010*[#   4]
          +0.006*[#   9]+0.005*[#   7]+0.002*[#  13]+0.002*[#  12]
    |psi|^2 = 0.996
==== e(   3) =     9.64270 eV ==== 
     psi = 0.390*[#  18]+0.366*[#   9]+0.085*[#  14]+0.040*[#  17]+0.026*[#  10]
          +0.018*[#  15]+0.014*[#  16]+0.013*[#   7]+0.010*[#  12]+0.010*[#  11]
          +0.009*[#   8]+0.007*[#   3]+0.007*[#   4]+0.003*[#   6]+0.002*[#   2]
          
    |psi|^2 = 0.999
==== e(   4) =    10.37500 eV ==== 
     psi = 0.242*[#  10]+0.233*[#  17]+0.153*[#  15]+0.152*[#  18]+0.122*[#   9]
          +0.065*[#  12]+0.027*[#  14]+0.002*[#   3]+0.001*[#   8]
    |psi|^2 = 0.999
==== e(   5) =    10.99639 eV ==== 
     psi = 0.324*[#  17]+0.211*[#  10]+0.130*[#  15]+0.106*[#  12]+0.077*[#  18]
          +0.051*[#   9]+0.045*[#  16]+0.033*[#  11]+0.007*[#  14]+0.005*[#   7]
          +0.004*[#   8]+0.003*[#   4]+0.002*[#   3]
    |psi|^2 = 0.999
==== e(   6) =    11.64420 eV ==== 
     psi = 0.308*[#  13]+0.286*[#  12]+0.093*[#  14]+0.087*[#  11]+0.065*[#  17]
          +0.042*[#  16]+0.041*[#   9]+0.020*[#   5]+0.015*[#   4]+0.011*[#   6]
          +0.010*[#  15]+0.006*[#   3]+0.005*[#   7]+0.005*[#  18]
    |psi|^2 = 0.995
==== e(   7) =    11.90817 eV ==== 
     psi = 0.359*[#  18]+0.276*[#   9]+0.120*[#  17]+0.094*[#  10]+0.053*[#  15]
          +0.046*[#  14]+0.027*[#  12]+0.010*[#  13]+0.008*[#  11]+0.004*[#  16]
          +0.001*[#   8]
    |psi|^2 = 1.000
==== e(   8) =    12.13809 eV ==== 
     psi = 0.288*[#  14]+0.248*[#  11]+0.131*[#  16]+0.128*[#  13]+0.099*[#  12]
          +0.057*[#  17]+0.031*[#   9]+0.006*[#   4]+0.004*[#  18]+0.004*[#   5]
          
    |psi|^2 = 0.997
==== e(   9) =    12.79134 eV ==== 
     psi = 0.301*[#  16]+0.273*[#  11]+0.175*[#   7]+0.090*[#   4]+0.080*[#   2]
          +0.015*[#  17]+0.014*[#  13]+0.011*[#  10]+0.010*[#   8]+0.008*[#  14]
          +0.006*[#   3]+0.006*[#   9]+0.005*[#   6]+0.003*[#  15]
    |psi|^2 = 0.998
==== e(  10) =    13.00394 eV ==== 
     psi = 0.288*[#  14]+0.195*[#  16]+0.147*[#  13]+0.120*[#  12]+0.108*[#  11]
          +0.062*[#   9]+0.025*[#  17]+0.016*[#  15]+0.009*[#   7]+0.006*[#   6]
          +0.006*[#  10]+0.006*[#   3]+0.003*[#   5]+0.002*[#   2]
    |psi|^2 = 0.996
==== e(  11) =    13.92036 eV ==== 
     psi = 0.377*[#  13]+0.263*[#  12]+0.113*[#  14]+0.077*[#  11]+0.073*[#  17]
          +0.065*[#  16]+0.027*[#   9]+0.002*[#   5]+0.001*[#   7]
    |psi|^2 = 0.999
==== e(  12) =    15.10025 eV ==== 
     psi = 0.489*[#  15]+0.299*[#  10]+0.098*[#   6]+0.048*[#   3]+0.047*[#   1]
          +0.005*[#   5]+0.004*[#   4]+0.003*[#  14]+0.002*[#  11]+0.002*[#   7]
          +0.001*[#  16]
    |psi|^2 = 0.999
==== e(  13) =    26.02774 eV ==== 
     psi = 0.327*[#   8]+0.235*[#   3]+0.212*[#   2]+0.116*[#   6]+0.005*[#  17]
          +0.004*[#  10]+0.003*[#  15]+0.003*[#  18]+0.002*[#   9]+0.001*[#  12]
          
    |psi|^2 = 0.910
==== e(  14) =    26.75071 eV ==== 
     psi = 0.312*[#   5]+0.225*[#   4]+0.221*[#   1]+0.111*[#   7]+0.010*[#  14]
          +0.008*[#  11]+0.007*[#  13]+0.005*[#  12]+0.005*[#  16]+0.002*[#   9]
          +0.001*[#  17]
    |psi|^2 = 0.908
==== e(  15) =    29.37477 eV ==== 
     psi = 0.399*[#   8]+0.259*[#   3]+0.126*[#   6]+0.003*[#  17]+0.002*[#  10]
          +0.001*[#  15]
    |psi|^2 = 0.791
==== e(  16) =    29.95730 eV ==== 
     psi = 0.389*[#   5]+0.256*[#   4]+0.119*[#   7]+0.006*[#  14]+0.004*[#  11]
          +0.003*[#  16]+0.001*[#   9]
    |psi|^2 = 0.780

 k =   0.0000000000 -0.2500000000  0.6250000000
==== e(   1) =     8.42431 eV ==== 
     psi = 0.165*[#  18]+0.147*[#  16]+0.142*[#   9]+0.116*[#  17]+0.102*[#  11]
          +0.090*[#  10]+0.057*[#  15]+0.057*[#   2]+0.038*[#   7]+0.034*[#  14]
          +0.030*[#  12]+0.020*[#   4]
    |psi|^2 = 0.999
==== e(   2) =     9.55985 eV ==== 
     psi = 0.233*[#  16]+0.195*[#   9]+0.194*[#  18]+0.188*[#  11]+0.053*[#   7]
          +0.036*[#  14]+0.030*[#   8]+0.028*[#   4]+0.018*[#   3]+0.013*[#   6]
          +0.007*[#   2]+0.002*[#  17]+0.001*[#  10]
    |psi|^2 = 0.999
==== e(   3) =     9.79471 eV ==== 
     psi = 0.138*[#  14]+0.138*[#  15]+0.109*[#  10]+0.105*[#   1]+0.090*[#  13]
          +0.087*[#   6]+0.083*[#  11]+0.080*[#  12]+0.078*[#  16]+0.051*[#   3]
          +0.021*[#   9]+0.015*[#  17]
    |psi|^2 = 0.996
==== e(   4) =    10.18483 eV ==== 
     psi = 0.227*[#  18]+0.201*[#  17]+0.181*[#   9]+0.177*[#  10]+0.122*[#  15]
          +0.049*[#  12]+0.036*[#  14]+0.003*[#   3]+0.002*[#   8]+0.001*[#  16]
          
    |psi|^2 = 1.000
==== e(   5) =    11.17621 eV ==== 
     psi = 0.258*[#  10]+0.194*[#  12]+0.134*[#  17]+0.091*[#  18]+0.087*[#  16]
          +0.081*[#   9]+0.039*[#  11]+0.031*[#  13]+0.020*[#  15]+0.019*[#   6]
          +0.013*[#   5]+0.011*[#   2]+0.008*[#   4]+0.004*[#   7]+0.003*[#   3]
          +0.002*[#  14]+0.002*[#   8]
    |psi|^2 = 0.999
==== e(   6) =    11.24929 eV ==== 
     psi = 0.242*[#  15]+0.179*[#  13]+0.168*[#  17]+0.073*[#  12]+0.063*[#   6]
          +0.057*[#   5]+0.044*[#  11]+0.042*[#   3]+0.041*[#   4]+0.027*[#  14]
          +0.020*[#  18]+0.018*[#   7]+0.011*[#  10]+0.004*[#   9]+0.003*[#   1]
          +0.003*[#   2]+0.002*[#  16]
    |psi|^2 = 0.997
==== e(   7) =    11.91349 eV ==== 
     psi = 0.215*[#  13]+0.204*[#  14]+0.171*[#  12]+0.164*[#  11]+0.127*[#  16]
          +0.052*[#   9]+0.049*[#  17]+0.005*[#   4]+0.005*[#   5]+0.002*[#  10]
          +0.002*[#   7]+0.001*[#  18]
    |psi|^2 = 0.998
==== e(   8) =    12.72860 eV ==== 
     psi = 0.285*[#  18]+0.202*[#   9]+0.185*[#  17]+0.135*[#  10]+0.086*[#  15]
          +0.066*[#  14]+0.039*[#  12]
    |psi|^2 = 1.000
==== e(   9) =    13.33806 eV ==== 
     psi = 0.225*[#  14]+0.158*[#  13]+0.149*[#  11]+0.111*[#  12]+0.099*[#  16]
          +0.092*[#  15]+0.056*[#   9]+0.054*[#  10]+0.034*[#  17]+0.013*[#   1]
          +0.002*[#   6]+0.002*[#   5]+0.002*[#   4]
    |psi|^2 = 0.997
==== e(  10) =    14.84729 eV ==== 
     psi = 0.286*[#  13]+0.219*[#  12]+0.178*[#  14]+0.143*[#  11]+0.075*[#  16]
          +0.052*[#  17]+0.040*[#   9]+0.003*[#   4]+0.001*[#   5]
    |psi|^2 = 1.000
==== e(  11) =    15.22015 eV ==== 
     psi = 0.326*[#   7]+0.166*[#   4]+0.126*[#  16]+0.117*[#   2]+0.082*[#   8]
          +0.059*[#   3]+0.051*[#  11]+0.027*[#   6]+0.015*[#  17]+0.008*[#  10]
          +0.006*[#  15]+0.006*[#   9]+0.005*[#  18]+0.002*[#  13]
    |psi|^2 = 0.997
==== e(  12) =    16.59769 eV ==== 
     psi = 0.243*[#   6]+0.223*[#  15]+0.137*[#  10]+0.126*[#   3]+0.081*[#   1]
          +0.066*[#   5]+0.047*[#   4]+0.022*[#   7]+0.014*[#  13]+0.011*[#  14]
          +0.010*[#  12]+0.008*[#  11]+0.005*[#  16]+0.003*[#   9]+0.002*[#  17]
          
    |psi|^2 = 0.998
==== e(  13) =    21.02205 eV ==== 
     psi = 0.486*[#   2]+0.210*[#   8]+0.147*[#   3]+0.073*[#   6]+0.020*[#  17]
          +0.015*[#  10]+0.010*[#  15]+0.008*[#  18]+0.006*[#   9]+0.005*[#  12]
          +0.002*[#  14]
    |psi|^2 = 0.982
==== e(  14) =    22.04945 eV ==== 
     psi = 0.484*[#   1]+0.186*[#   5]+0.131*[#   4]+0.065*[#   7]+0.034*[#  14]
          +0.025*[#  11]+0.017*[#  13]+0.017*[#  16]+0.013*[#  12]+0.008*[#   9]
          +0.003*[#  17]
    |psi|^2 = 0.983
==== e(  15) =    27.79009 eV ==== 
     psi = 0.467*[#   8]+0.309*[#   3]+0.155*[#   6]+0.002*[#  17]+0.002*[#  10]
          +0.001*[#  15]
    |psi|^2 = 0.937
==== e(  16) =    28.32854 eV ==== 
     psi = 0.464*[#   5]+0.307*[#   4]+0.152*[#   7]+0.005*[#  14]+0.004*[#  11]
          +0.003*[#  16]+0.001*[#   9]
    |psi|^2 = 0.938

 k =  -0.1250000000 -0.1250000000  0.6250000000
==== e(   1) =     8.70970 eV ==== 
     psi = 0.379*[#  16]+0.264*[#  11]+0.109*[#   7]+0.065*[#   2]+0.057*[#   4]
          +0.043*[#  17]+0.034*[#  10]+0.022*[#  15]+0.011*[#  12]+0.007*[#   8]
          +0.005*[#   3]+0.002*[#   6]
    |psi|^2 = 0.999
==== e(   2) =     9.04152 eV ==== 
     psi = 0.419*[#  18]+0.371*[#   9]+0.087*[#  14]+0.038*[#  17]+0.029*[#  10]
          +0.017*[#  15]+0.014*[#   8]+0.010*[#  12]+0.009*[#   3]+0.005*[#   6]
          
    |psi|^2 = 0.999
==== e(   3) =     9.91411 eV ==== 
     psi = 0.260*[#  15]+0.201*[#  10]+0.186*[#   6]+0.112*[#   1]+0.097*[#   3]
          +0.048*[#  14]+0.037*[#  11]+0.021*[#  16]+0.012*[#   5]+0.009*[#   9]
          +0.008*[#   4]+0.004*[#   7]
    |psi|^2 = 0.996
==== e(   4) =    10.44358 eV ==== 
     psi = 0.193*[#  17]+0.177*[#  10]+0.169*[#  18]+0.138*[#   9]+0.130*[#  15]
          +0.057*[#  12]+0.055*[#  16]+0.034*[#  11]+0.029*[#  14]+0.005*[#   3]
          +0.004*[#   8]+0.004*[#   2]+0.002*[#   7]+0.001*[#   4]
    |psi|^2 = 1.000
==== e(   5) =    10.94735 eV ==== 
     psi = 0.371*[#  13]+0.341*[#  12]+0.062*[#  17]+0.058*[#  14]+0.046*[#  11]
          +0.031*[#   5]+0.031*[#  16]+0.022*[#   9]+0.021*[#   4]+0.010*[#   7]
          +0.001*[#  10]
    |psi|^2 = 0.995
==== e(   6) =    11.38921 eV ==== 
     psi = 0.383*[#  17]+0.252*[#  10]+0.158*[#  15]+0.083*[#  12]+0.060*[#  18]
          +0.038*[#   9]+0.009*[#  14]+0.005*[#   8]+0.004*[#   3]+0.003*[#  13]
          +0.002*[#  11]+0.001*[#   6]
    |psi|^2 = 0.999
==== e(   7) =    12.20239 eV ==== 
     psi = 0.202*[#  11]+0.157*[#  13]+0.153*[#  12]+0.127*[#  14]+0.118*[#   9]
          +0.082*[#  15]+0.070*[#  16]+0.031*[#  18]+0.012*[#   4]+0.012*[#  17]
          +0.009*[#   5]+0.009*[#   6]+0.005*[#   3]+0.005*[#  10]+0.003*[#   1]
          +0.001*[#   2]
    |psi|^2 = 0.998
==== e(   8) =    12.31707 eV ==== 
     psi = 0.300*[#  18]+0.171*[#   9]+0.140*[#  17]+0.137*[#  14]+0.096*[#  10]
          +0.092*[#  16]+0.024*[#  15]+0.013*[#  13]+0.010*[#   7]+0.009*[#   2]
          +0.002*[#  11]+0.002*[#  12]+0.001*[#   4]
    |psi|^2 = 1.000
==== e(   9) =    13.37036 eV ==== 
     psi = 0.342*[#  14]+0.228*[#  11]+0.149*[#  16]+0.099*[#  13]+0.081*[#   9]
          +0.066*[#  12]+0.020*[#  17]+0.005*[#   5]+0.004*[#   4]
    |psi|^2 = 0.996
==== e(  10) =    14.42281 eV ==== 
     psi = 0.317*[#  13]+0.239*[#  12]+0.103*[#  14]+0.082*[#  11]+0.069*[#  15]
          +0.059*[#  17]+0.047*[#  10]+0.044*[#  16]+0.023*[#   9]+0.009*[#   1]
          +0.003*[#   6]+0.003*[#   3]+0.001*[#   4]
    |psi|^2 = 0.999
==== e(  11) =    15.10168 eV ==== 
     psi = 0.318*[#   7]+0.196*[#   2]+0.162*[#   4]+0.129*[#  16]+0.061*[#  11]
          +0.026*[#  17]+0.026*[#   8]+0.018*[#   3]+0.014*[#  10]+0.014*[#  15]
          +0.011*[#  18]+0.009*[#   6]+0.009*[#   9]+0.003*[#  12]+0.002*[#  14]
          
    |psi|^2 = 0.997
==== e(  12) =    16.61057 eV ==== 
     psi = 0.237*[#   6]+0.212*[#  15]+0.152*[#   1]+0.130*[#  10]+0.123*[#   3]
          +0.028*[#  14]+0.021*[#   5]+0.020*[#  11]+0.017*[#  13]+0.015*[#   4]
          +0.014*[#  16]+0.013*[#  12]+0.007*[#   7]+0.007*[#   9]+0.004*[#  17]
          
    |psi|^2 = 0.998
==== e(  13) =    23.92803 eV ==== 
     psi = 0.397*[#   8]+0.339*[#   3]+0.171*[#   6]+0.008*[#  18]+0.008*[#  17]
          +0.007*[#  10]+0.006*[#   9]+0.005*[#  15]+0.002*[#   2]+0.002*[#  12]
          +0.001*[#  14]
    |psi|^2 = 0.948
==== e(  14) =    24.50994 eV ==== 
     psi = 0.391*[#   2]+0.315*[#   8]+0.138*[#   3]+0.070*[#   6]+0.019*[#   4]
          +0.012*[#   7]+0.006*[#  17]+0.004*[#  10]+0.003*[#  15]+0.002*[#  12]
          +0.002*[#  16]+0.001*[#   5]
    |psi|^2 = 0.965
==== e(  15) =    24.74734 eV ==== 
     psi = 0.361*[#   5]+0.327*[#   4]+0.178*[#   7]+0.019*[#  13]+0.014*[#  11]
          +0.013*[#  14]+0.012*[#  12]+0.009*[#  16]+0.004*[#   1]+0.004*[#  17]
          +0.003*[#   9]+0.002*[#   8]+0.001*[#   2]+0.001*[#   3]
    |psi|^2 = 0.948
==== e(  16) =    25.16370 eV ==== 
     psi = 0.392*[#   1]+0.323*[#   5]+0.123*[#   4]+0.062*[#   7]+0.018*[#   6]
          +0.015*[#  14]+0.008*[#   3]+0.007*[#  11]+0.005*[#  16]+0.003*[#   9]
          +0.002*[#  15]+0.002*[#  12]+0.002*[#  10]
    |psi|^2 = 0.963

 k =  -0.1250000000  0.7500000000 -0.2500000000
==== e(   1) =     8.68700 eV ==== 
     psi = 0.291*[#  18]+0.254*[#   9]+0.119*[#  16]+0.083*[#  11]+0.061*[#  14]
          +0.053*[#  17]+0.041*[#  10]+0.026*[#  15]+0.016*[#   8]+0.014*[#  12]
          +0.013*[#   2]+0.011*[#   3]+0.009*[#   7]+0.005*[#   6]+0.005*[#   4]
          
    |psi|^2 = 0.999
==== e(   2) =     9.03908 eV ==== 
     psi = 0.383*[#  16]+0.270*[#  11]+0.112*[#  18]+0.098*[#   9]+0.033*[#   7]
          +0.024*[#   8]+0.023*[#  14]+0.017*[#   3]+0.017*[#   4]+0.008*[#   6]
          +0.007*[#  17]+0.004*[#  10]+0.003*[#  15]+0.002*[#  12]
    |psi|^2 = 1.000
==== e(   3) =    10.25608 eV ==== 
     psi = 0.220*[#  10]+0.196*[#  17]+0.193*[#  18]+0.144*[#   9]+0.090*[#  15]
          +0.074*[#  12]+0.048*[#  14]+0.016*[#   2]+0.004*[#  16]+0.004*[#  11]
          +0.003*[#   6]+0.003*[#   8]+0.002*[#  13]+0.001*[#   3]
    |psi|^2 = 0.999
==== e(   4) =    10.37873 eV ==== 
     psi = 0.243*[#  13]+0.194*[#  12]+0.115*[#  15]+0.068*[#  14]+0.067*[#  17]
          +0.058*[#  11]+0.053*[#  10]+0.042*[#  16]+0.034*[#   9]+0.032*[#   5]
          +0.028*[#   1]+0.022*[#   4]+0.018*[#   6]+0.012*[#   3]+0.010*[#   7]
          +0.003*[#  18]
    |psi|^2 = 0.996
==== e(   5) =    10.73118 eV ==== 
     psi = 0.332*[#  15]+0.228*[#  10]+0.102*[#  13]+0.092*[#  12]+0.066*[#   6]
          +0.050*[#   5]+0.035*[#   3]+0.035*[#   4]+0.017*[#   7]+0.017*[#  17]
          +0.008*[#  14]+0.006*[#  11]+0.004*[#  16]+0.004*[#   9]+0.001*[#  18]
          
    |psi|^2 = 0.997
==== e(   6) =    11.68153 eV ==== 
     psi = 0.278*[#  17]+0.193*[#  10]+0.146*[#  15]+0.115*[#  18]+0.099*[#   9]
          +0.099*[#  12]+0.026*[#  11]+0.011*[#  16]+0.008*[#  14]+0.007*[#   2]
          +0.004*[#  13]+0.004*[#   8]+0.004*[#   3]+0.003*[#   4]+0.001*[#   7]
          
    |psi|^2 = 0.999
==== e(   7) =    11.95378 eV ==== 
     psi = 0.205*[#  14]+0.198*[#  13]+0.157*[#  11]+0.144*[#  12]+0.120*[#  16]
          +0.062*[#  17]+0.044*[#   9]+0.024*[#   1]+0.015*[#  15]+0.007*[#   5]
          +0.007*[#  10]+0.006*[#   4]+0.004*[#  18]+0.003*[#   7]
    |psi|^2 = 0.998
==== e(   8) =    12.53606 eV ==== 
     psi = 0.245*[#  18]+0.198*[#  17]+0.175*[#   9]+0.134*[#  10]+0.097*[#  15]
          +0.060*[#  14]+0.038*[#  12]+0.026*[#  16]+0.011*[#  11]+0.004*[#   7]
          +0.003*[#   8]+0.002*[#   3]+0.003*[#   4]+0.001*[#   6]
    |psi|^2 = 1.000
==== e(   9) =    13.72596 eV ==== 
     psi = 0.276*[#  14]+0.187*[#  11]+0.139*[#  13]+0.128*[#  16]+0.102*[#  12]
          +0.066*[#   9]+0.033*[#  15]+0.028*[#  17]+0.019*[#  10]+0.010*[#   1]
          +0.003*[#   5]+0.003*[#   4]+0.001*[#   6]
    |psi|^2 = 0.997
==== e(  10) =    14.65119 eV ==== 
     psi = 0.240*[#  13]+0.183*[#  12]+0.181*[#  14]+0.134*[#  11]+0.092*[#  16]
          +0.048*[#  17]+0.043*[#   9]+0.040*[#  15]+0.025*[#  10]+0.005*[#   6]
          +0.003*[#   5]+0.003*[#   3]+0.003*[#   4]+0.001*[#   7]
    |psi|^2 = 0.999
==== e(  11) =    18.04903 eV ==== 
     psi = 0.288*[#   7]+0.215*[#   8]+0.153*[#   3]+0.153*[#   4]+0.072*[#   6]
          +0.039*[#  16]+0.022*[#  11]+0.019*[#  18]+0.013*[#   9]+0.007*[#  17]
          +0.005*[#  10]+0.004*[#  14]+0.003*[#  15]+0.001*[#  12]
    |psi|^2 = 0.994
==== e(  12) =    19.07293 eV ==== 
     psi = 0.251*[#   6]+0.190*[#   5]+0.137*[#   3]+0.136*[#   4]+0.076*[#  15]
          +0.062*[#   7]+0.046*[#  10]+0.036*[#  13]+0.026*[#  12]+0.012*[#  14]
          +0.008*[#  11]+0.007*[#  17]+0.006*[#  16]+0.003*[#   9]
    |psi|^2 = 0.994
==== e(  13) =    20.18783 eV ==== 
     psi = 0.462*[#   2]+0.128*[#   8]+0.124*[#   7]+0.086*[#   3]+0.061*[#   4]
          +0.048*[#   6]+0.022*[#  17]+0.016*[#  10]+0.010*[#  15]+0.009*[#  18]
          +0.006*[#   9]+0.005*[#  12]+0.004*[#  16]+0.002*[#  11]+0.002*[#  14]
          
    |psi|^2 = 0.986
==== e(  14) =    21.20594 eV ==== 
     psi = 0.453*[#   1]+0.113*[#   5]+0.110*[#   6]+0.078*[#   4]+0.057*[#   3]
          +0.041*[#   7]+0.037*[#  14]+0.027*[#  11]+0.018*[#  16]+0.017*[#  13]
          +0.012*[#  12]+0.009*[#   9]+0.007*[#  15]+0.004*[#  10]+0.003*[#  17]
          
    |psi|^2 = 0.986
==== e(  15) =    23.54693 eV ==== 
     psi = 0.351*[#   8]+0.241*[#   2]+0.223*[#   3]+0.118*[#   6]+0.007*[#  18]
          +0.007*[#   7]+0.006*[#   9]+0.004*[#   4]+0.003*[#  17]+0.003*[#  10]
          +0.002*[#  14]+0.002*[#  15]+0.001*[#  16]
    |psi|^2 = 0.968
==== e(  16) =    24.22934 eV ==== 
     psi = 0.345*[#   5]+0.227*[#   1]+0.221*[#   4]+0.115*[#   7]+0.014*[#  13]
          +0.011*[#  12]+0.007*[#   6]+0.007*[#  14]+0.005*[#  11]+0.004*[#   3]
          +0.003*[#  16]+0.003*[#  17]+0.003*[#  15]+0.002*[#  10]+0.002*[#   9]
          
    |psi|^2 = 0.968

 k =   0.6250000000 -0.6250000000  0.3750000000
==== e(   1) =     9.30865 eV ==== 
     psi = 0.414*[#  17]+0.197*[#   9]+0.109*[#  12]+0.092*[#  10]+0.058*[#  15]
          +0.046*[#  14]+0.025*[#  18]+0.012*[#  16]+0.011*[#   3]+0.009*[#  11]
          +0.009*[#   8]+0.008*[#   7]+0.005*[#   6]+0.004*[#   4]
    |psi|^2 = 1.000
==== e(   2) =     9.31100 eV ==== 
     psi = 0.313*[#  10]+0.282*[#  18]+0.197*[#  15]+0.097*[#   9]+0.030*[#  16]
          +0.023*[#  14]+0.022*[#   8]+0.022*[#  11]+0.008*[#   7]+0.004*[#   4]
          
    |psi|^2 = 1.000
==== e(   3) =     9.42104 eV ==== 
     psi = 0.219*[#  17]+0.113*[#  18]+0.096*[#   2]+0.091*[#  10]+0.080*[#   8]
          +0.078*[#   9]+0.067*[#   3]+0.059*[#   7]+0.058*[#  12]+0.057*[#  15]
          +0.032*[#   6]+0.031*[#   4]+0.018*[#  14]
    |psi|^2 = 0.999
==== e(   4) =    10.23622 eV ==== 
     psi = 0.132*[#   1]+0.129*[#  14]+0.125*[#   5]+0.103*[#  11]+0.088*[#   4]
          +0.082*[#   6]+0.079*[#  13]+0.064*[#  12]+0.062*[#  16]+0.044*[#   3]
          +0.041*[#   7]+0.031*[#   9]+0.019*[#  17]
    |psi|^2 = 0.998
==== e(   5) =    10.80748 eV ==== 
     psi = 0.361*[#  11]+0.249*[#  14]+0.175*[#  16]+0.078*[#   9]+0.069*[#  13]
          +0.036*[#   5]+0.017*[#   4]+0.008*[#   7]+0.001*[#   6]+0.001*[#  10]
          +0.001*[#  12]
    |psi|^2 = 0.998
==== e(   6) =    10.80931 eV ==== 
     psi = 0.265*[#  12]+0.242*[#  13]+0.204*[#  14]+0.062*[#  17]+0.058*[#   9]
          +0.039*[#  11]+0.029*[#  15]+0.025*[#   6]+0.019*[#  16]+0.018*[#  10]
[...]
    |psi|^2 = 0.999
==== e(   4) =    10.37954 eV ==== 
     psi = 0.455*[#  15]+0.208*[#  10]+0.116*[#  12]+0.088*[#  13]+0.031*[#   5]
          +0.028*[#   1]+0.021*[#   6]+0.020*[#   4]+0.012*[#   3]+0.007*[#   7]
          +0.004*[#  17]+0.003*[#  18]+0.002*[#   9]
    |psi|^2 = 0.996
==== e(   5) =    10.73200 eV ==== 
     psi = 0.372*[#  13]+0.297*[#  12]+0.097*[#   5]+0.077*[#  17]+0.072*[#   4]
          +0.033*[#   7]+0.017*[#  14]+0.012*[#  11]+0.010*[#  16]+0.007*[#   9]
          +0.001*[#  15]
    |psi|^2 = 0.997
==== e(   6) =    11.67619 eV ==== 
     psi = 0.302*[#  18]+0.272*[#   9]+0.096*[#  11]+0.083*[#  17]+0.082*[#  10]
          +0.043*[#  16]+0.039*[#  12]+0.037*[#  15]+0.022*[#  14]+0.007*[#   2]
          +0.004*[#   3]+0.003*[#  13]+0.003*[#   7]+0.002*[#   4]+0.002*[#   8]
          
    |psi|^2 = 0.999
==== e(   7) =    11.95977 eV ==== 
     psi = 0.326*[#  14]+0.192*[#  16]+0.184*[#  11]+0.080*[#  13]+0.051*[#  12]
          +0.047*[#  15]+0.033*[#   9]+0.029*[#  17]+0.024*[#   1]+0.011*[#   6]
          +0.009*[#  18]+0.007*[#  10]+0.005*[#   3]
    |psi|^2 = 0.998
==== e(   8) =    12.53484 eV ==== 
     psi = 0.396*[#  17]+0.266*[#  10]+0.189*[#  15]+0.086*[#  12]+0.025*[#  18]
          +0.018*[#   9]+0.007*[#   8]+0.006*[#  14]+0.005*[#   3]+0.002*[#   6]
          
    |psi|^2 = 1.000
==== e(   9) =    13.72576 eV ==== 
     psi = 0.276*[#  13]+0.213*[#  12]+0.132*[#  15]+0.091*[#  14]+0.077*[#  10]
          +0.065*[#  11]+0.056*[#  17]+0.046*[#  16]+0.021*[#   9]+0.010*[#   1]
          +0.003*[#   6]+0.002*[#   4]+0.002*[#   3]+0.002*[#   5]+0.001*[#   7]
          
    |psi|^2 = 0.997
==== e(  10) =    14.65116 eV ==== 
     psi = 0.368*[#  14]+0.261*[#  11]+0.179*[#  16]+0.090*[#   9]+0.045*[#  13]
          +0.033*[#  12]+0.009*[#  17]+0.007*[#   5]+0.005*[#   4]+0.002*[#   7]
          
    |psi|^2 = 0.999
==== e(  11) =    18.04911 eV ==== 
     psi = 0.429*[#   8]+0.307*[#   3]+0.145*[#   6]+0.042*[#  18]+0.029*[#   9]
          +0.013*[#  17]+0.009*[#  10]+0.009*[#  14]+0.007*[#  15]+0.003*[#  12]
          
    |psi|^2 = 0.994
==== e(  12) =    19.07316 eV ==== 
     psi = 0.380*[#   5]+0.271*[#   4]+0.125*[#   7]+0.084*[#  13]+0.061*[#  12]
          +0.023*[#  14]+0.017*[#  17]+0.016*[#  11]+0.011*[#  16]+0.005*[#   9]
          
    |psi|^2 = 0.994
==== e(  13) =    20.18779 eV ==== 
     psi = 0.462*[#   2]+0.191*[#   8]+0.123*[#   3]+0.056*[#   6]+0.052*[#   7]
          +0.027*[#  18]+0.025*[#   4]+0.021*[#   9]+0.014*[#  16]+0.008*[#  11]
          +0.006*[#  14]
    |psi|^2 = 0.986
==== e(  14) =    21.20590 eV ==== 
     psi = 0.453*[#   1]+0.170*[#   5]+0.113*[#   4]+0.050*[#   7]+0.045*[#  13]
          +0.044*[#   6]+0.036*[#  12]+0.027*[#  15]+0.022*[#   3]+0.016*[#  10]
          +0.009*[#  17]
    |psi|^2 = 0.986
==== e(  15) =    23.54692 eV ==== 
     psi = 0.462*[#   7]+0.241*[#   2]+0.219*[#   4]+0.011*[#   8]+0.007*[#   3]
          +0.007*[#  17]+0.005*[#  10]+0.005*[#  16]+0.003*[#  15]+0.003*[#  11]
          +0.003*[#   6]+0.002*[#  12]
    |psi|^2 = 0.968
==== e(  16) =    24.22926 eV ==== 
     psi = 0.453*[#   6]+0.227*[#   1]+0.218*[#   3]+0.013*[#  14]+0.011*[#   5]
          +0.011*[#  15]+0.009*[#  11]+0.007*[#   4]+0.007*[#  10]+0.006*[#  16]
          +0.003*[#   7]+0.003*[#   9]
    |psi|^2 = 0.968

 k =  -0.5000000000  0.3750000000  0.5000000000
==== e(   1) =     9.18313 eV ==== 
     psi = 0.313*[#  17]+0.262*[#  10]+0.166*[#  15]+0.082*[#  12]+0.036*[#   8]
          +0.031*[#  18]+0.028*[#   9]+0.024*[#   3]+0.020*[#   2]+0.013*[#  16]
          +0.011*[#   6]+0.009*[#  11]+0.006*[#  14]
    |psi|^2 = 1.000
==== e(   2) =     9.27676 eV ==== 
     psi = 0.227*[#  18]+0.204*[#   9]+0.191*[#  17]+0.146*[#  10]+0.092*[#  15]
          +0.050*[#  12]+0.049*[#  14]+0.013*[#   7]+0.010*[#   8]+0.007*[#   3]
          +0.007*[#   4]+0.003*[#   6]
    |psi|^2 = 1.000
==== e(   3) =     9.89368 eV ==== 
     psi = 0.201*[#  18]+0.180*[#   9]+0.175*[#  17]+0.122*[#  10]+0.075*[#  15]
          +0.053*[#   7]+0.048*[#  12]+0.038*[#  14]+0.037*[#   8]+0.028*[#   3]
          +0.026*[#   4]+0.014*[#   6]
    |psi|^2 = 1.000
==== e(   4) =    10.50101 eV ==== 
     psi = 0.308*[#  14]+0.261*[#  11]+0.142*[#  16]+0.081*[#   9]+0.059*[#   5]
          +0.042*[#   4]+0.032*[#   1]+0.020*[#  13]+0.018*[#   7]+0.017*[#  12]
          +0.009*[#  15]+0.005*[#  17]+0.005*[#  10]
    |psi|^2 = 0.998
==== e(   5) =    10.72017 eV ==== 
     psi = 0.224*[#  13]+0.191*[#  12]+0.181*[#  14]+0.155*[#  11]+0.079*[#  16]
          +0.050*[#   9]+0.046*[#  17]+0.023*[#   6]+0.018*[#   5]+0.013*[#   4]
          +0.013*[#   3]+0.005*[#   7]
    |psi|^2 = 0.999
==== e(   6) =    11.10416 eV ==== 
     psi = 0.183*[#  13]+0.148*[#  12]+0.147*[#  14]+0.124*[#  11]+0.084*[#   6]
          +0.062*[#   5]+0.056*[#  16]+0.046*[#   3]+0.046*[#   4]+0.042*[#  17]
          +0.041*[#   9]+0.021*[#   7]
    |psi|^2 = 0.999
==== e(   7) =    11.69041 eV ==== 
     psi = 0.381*[#  18]+0.263*[#   9]+0.121*[#  16]+0.085*[#  14]+0.060*[#  11]
          +0.036*[#  17]+0.028*[#  10]+0.016*[#  15]+0.009*[#  12]
    |psi|^2 = 1.000
==== e(   8) =    11.69579 eV ==== 
     psi = 0.513*[#  16]+0.282*[#  11]+0.107*[#  18]+0.078*[#   9]+0.019*[#  14]
          
    |psi|^2 = 1.000
==== e(   9) =    14.44527 eV ==== 
     psi = 0.356*[#  13]+0.272*[#  12]+0.144*[#  15]+0.092*[#  10]+0.071*[#  17]
          +0.027*[#  14]+0.018*[#  11]+0.014*[#  16]+0.006*[#   9]
    |psi|^2 = 1.000
==== e(  10) =    14.51776 eV ==== 
     psi = 0.456*[#  15]+0.291*[#  10]+0.128*[#  13]+0.098*[#  12]+0.026*[#  17]
          
    |psi|^2 = 1.000
==== e(  11) =    18.58875 eV ==== 
     psi = 0.274*[#   7]+0.204*[#   8]+0.144*[#   3]+0.143*[#   4]+0.069*[#   6]
          +0.041*[#  18]+0.034*[#  17]+0.030*[#   9]+0.022*[#  10]+0.017*[#  15]
          +0.009*[#  14]+0.007*[#  12]
    |psi|^2 = 0.995
==== e(  12) =    19.56336 eV ==== 
     psi = 0.240*[#   6]+0.182*[#   5]+0.128*[#   3]+0.127*[#   4]+0.067*[#  13]
          +0.059*[#   7]+0.053*[#  14]+0.049*[#  12]+0.037*[#  11]+0.026*[#  16]
          +0.014*[#  17]+0.012*[#   9]
    |psi|^2 = 0.995
==== e(  13) =    20.34546 eV ==== 
     psi = 0.448*[#   2]+0.228*[#   8]+0.152*[#   3]+0.077*[#   6]+0.034*[#  17]
          +0.023*[#  10]+0.017*[#  15]+0.008*[#  12]+0.001*[#   9]+0.001*[#  18]
          
    |psi|^2 = 0.990
==== e(  14) =    21.32059 eV ==== 
     psi = 0.428*[#   1]+0.209*[#   5]+0.143*[#   4]+0.069*[#   7]+0.055*[#  14]
          +0.038*[#  11]+0.027*[#  16]+0.013*[#   9]+0.003*[#  13]+0.003*[#  12]
          +0.001*[#  15]
    |psi|^2 = 0.990
==== e(  15) =    23.44835 eV ==== 
     psi = 0.313*[#   7]+0.224*[#   8]+0.158*[#   3]+0.154*[#   4]+0.084*[#   6]
          +0.010*[#  18]+0.008*[#  17]+0.008*[#   9]+0.006*[#  10]+0.004*[#  15]
          +0.002*[#  12]+0.002*[#  14]
    |psi|^2 = 0.975
==== e(  16) =    24.13015 eV ==== 
     psi = 0.264*[#   6]+0.214*[#   5]+0.181*[#   3]+0.151*[#   4]+0.079*[#   7]
          +0.018*[#  13]+0.015*[#  14]+0.013*[#  12]+0.010*[#  11]+0.009*[#   2]
          +0.007*[#  16]+0.004*[#  17]+0.004*[#   8]+0.004*[#   9]
    |psi|^2 = 0.976

 k =   0.0000000000  0.6250000000  0.0000000000
==== e(   1) =     8.49289 eV ==== 
     psi = 0.262*[#  18]+0.224*[#   9]+0.107*[#   8]+0.106*[#  16]+0.074*[#   3]
          +0.074*[#  11]+0.064*[#   2]+0.054*[#  14]+0.036*[#   6]
    |psi|^2 = 0.999
==== e(   2) =     8.99445 eV ==== 
     psi = 0.439*[#  16]+0.309*[#  11]+0.119*[#  18]+0.105*[#   9]+0.025*[#  14]
          
    |psi|^2 = 0.998
==== e(   3) =     9.65332 eV ==== 
     psi = 0.194*[#  13]+0.181*[#   5]+0.163*[#  12]+0.126*[#   4]+0.104*[#   1]
          +0.075*[#  15]+0.061*[#   7]+0.056*[#  10]+0.037*[#  17]
    |psi|^2 = 0.997
==== e(   4) =    11.03907 eV ==== 
     psi = 0.415*[#  10]+0.327*[#  15]+0.116*[#  13]+0.088*[#  12]+0.040*[#  17]
          
    |psi|^2 = 0.985
==== e(   5) =    11.25451 eV ==== 
     psi = 0.499*[#  18]+0.399*[#   9]+0.086*[#  14]+0.007*[#   3]+0.006*[#   8]
          +0.003*[#   6]
    |psi|^2 = 0.999
==== e(   6) =    11.25642 eV ==== 
     psi = 0.329*[#  17]+0.295*[#  15]+0.234*[#  10]+0.124*[#  12]+0.009*[#   7]
          +0.007*[#   4]+0.001*[#  13]
    |psi|^2 = 0.999
==== e(   7) =    11.94861 eV ==== 
     psi = 0.432*[#  17]+0.240*[#  10]+0.219*[#  15]+0.107*[#  12]+0.002*[#  13]
          
    |psi|^2 = 1.000
==== e(   8) =    13.07651 eV ==== 
     psi = 0.362*[#  14]+0.311*[#  11]+0.206*[#  16]+0.089*[#   9]+0.016*[#   6]
          +0.012*[#   3]
    |psi|^2 = 0.998
==== e(   9) =    13.07930 eV ==== 
     psi = 0.483*[#  13]+0.371*[#  12]+0.116*[#  17]+0.012*[#   5]+0.011*[#   4]
          +0.005*[#   7]
    |psi|^2 = 0.998
==== e(  10) =    13.97595 eV ==== 
     psi = 0.433*[#  14]+0.274*[#  11]+0.193*[#  16]+0.100*[#   9]
    |psi|^2 = 0.999
==== e(  11) =    14.46884 eV ==== 
     psi = 0.250*[#   8]+0.212*[#   2]+0.170*[#   3]+0.111*[#  18]+0.085*[#   6]
          +0.073*[#   9]+0.048*[#  16]+0.026*[#  14]+0.023*[#  11]
    |psi|^2 = 0.997
==== e(  12) =    16.07927 eV ==== 
     psi = 0.186*[#  13]+0.175*[#   5]+0.175*[#   1]+0.131*[#  12]+0.119*[#   4]
          +0.073*[#  15]+0.058*[#   7]+0.044*[#  10]+0.036*[#  17]
    |psi|^2 = 0.997
==== e(  13) =    26.48791 eV ==== 
     psi = 0.502*[#   7]+0.376*[#   4]+0.009*[#   5]+0.005*[#  17]+0.004*[#  10]
          +0.003*[#  12]+0.003*[#  15]
    |psi|^2 = 0.903
==== e(  14) =    26.48791 eV ==== 
     psi = 0.436*[#   8]+0.377*[#   3]+0.074*[#   6]+0.008*[#  18]+0.007*[#   9]
          
    |psi|^2 = 0.903
==== e(  15) =    27.06350 eV ==== 
     psi = 0.650*[#   6]+0.208*[#   3]+0.013*[#  14]+0.009*[#  11]+0.009*[#   8]
          +0.006*[#  16]+0.002*[#   9]
    |psi|^2 = 0.895
==== e(  16) =    27.06353 eV ==== 
     psi = 0.426*[#   5]+0.233*[#   7]+0.208*[#   4]+0.015*[#  13]+0.010*[#  12]
          +0.004*[#  17]
    |psi|^2 = 0.895

 k =  -0.1250000000  0.7500000000  0.0000000000
==== e(   1) =     8.42404 eV ==== 
     psi = 0.481*[#  16]+0.333*[#  11]+0.059*[#  18]+0.058*[#   9]+0.024*[#   8]
          +0.015*[#   3]+0.014*[#  14]+0.009*[#   2]+0.007*[#   6]
    |psi|^2 = 0.999
==== e(   2) =     8.55099 eV ==== 
     psi = 0.403*[#  18]+0.336*[#   9]+0.081*[#  14]+0.075*[#  16]+0.052*[#  11]
          +0.024*[#   8]+0.018*[#   3]+0.009*[#   6]+0.002*[#   2]
    |psi|^2 = 0.999
==== e(   3) =    10.09452 eV ==== 
     psi = 0.225*[#  15]+0.210*[#  13]+0.181*[#  12]+0.171*[#  10]+0.072*[#   5]
          +0.049*[#   4]+0.040*[#  17]+0.024*[#   7]+0.023*[#   1]
    |psi|^2 = 0.996
==== e(   4) =    10.39523 eV ==== 
     psi = 0.271*[#  15]+0.222*[#  13]+0.215*[#  10]+0.188*[#  12]+0.042*[#  17]
          +0.025*[#   5]+0.018*[#   4]+0.009*[#   7]
    |psi|^2 = 0.991
==== e(   5) =    11.38985 eV ==== 
     psi = 0.368*[#  17]+0.295*[#  10]+0.223*[#  15]+0.099*[#  12]+0.007*[#   7]
          +0.006*[#   4]
    |psi|^2 = 1.000
==== e(   6) =    11.65570 eV ==== 
     psi = 0.480*[#  18]+0.378*[#   9]+0.079*[#  14]+0.019*[#  16]+0.017*[#  11]
          +0.011*[#   2]+0.006*[#   8]+0.006*[#   3]+0.002*[#   6]
    |psi|^2 = 0.999
==== e(   7) =    12.62055 eV ==== 
     psi = 0.417*[#  17]+0.269*[#  10]+0.205*[#  15]+0.107*[#  12]
    |psi|^2 = 1.000
==== e(   8) =    13.25361 eV ==== 
     psi = 0.382*[#  14]+0.297*[#  11]+0.211*[#  16]+0.083*[#   9]+0.016*[#   6]
          +0.009*[#   3]
    |psi|^2 = 0.998
==== e(   9) =    13.55320 eV ==== 
     psi = 0.451*[#  13]+0.338*[#  12]+0.104*[#  17]+0.039*[#  15]+0.025*[#  10]
          +0.018*[#   1]+0.010*[#   5]+0.008*[#   4]+0.004*[#   7]
    |psi|^2 = 0.997
==== e(  10) =    14.72779 eV ==== 
     psi = 0.420*[#  14]+0.284*[#  11]+0.194*[#  16]+0.100*[#   9]+0.001*[#   6]
          
    |psi|^2 = 1.000
==== e(  11) =    17.52649 eV ==== 
     psi = 0.335*[#   8]+0.239*[#   3]+0.215*[#   2]+0.112*[#   6]+0.042*[#  18]
          +0.029*[#   9]+0.010*[#  16]+0.009*[#  14]+0.005*[#  11]
    |psi|^2 = 0.995
==== e(  12) =    18.50735 eV ==== 
     psi = 0.297*[#   5]+0.212*[#   4]+0.204*[#   1]+0.098*[#   7]+0.081*[#  13]
          +0.058*[#  12]+0.017*[#  15]+0.016*[#  17]+0.010*[#  10]
    |psi|^2 = 0.994
==== e(  13) =    22.19255 eV ==== 
     psi = 0.382*[#   8]+0.260*[#   3]+0.178*[#   2]+0.112*[#   6]+0.016*[#  18]
          +0.013*[#   9]+0.003*[#  16]+0.003*[#  14]+0.002*[#  11]
    |psi|^2 = 0.970
==== e(  14) =    22.91131 eV ==== 
     psi = 0.362*[#   5]+0.255*[#   4]+0.181*[#   1]+0.099*[#   7]+0.031*[#  13]
          +0.024*[#  12]+0.007*[#  15]+0.006*[#  17]+0.004*[#  10]
    |psi|^2 = 0.970
==== e(  15) =    24.72561 eV ==== 
     psi = 0.649*[#   7]+0.289*[#   4]+0.006*[#  17]+0.004*[#  10]+0.003*[#  15]
          +0.001*[#  12]
    |psi|^2 = 0.953
==== e(  16) =    25.19064 eV ==== 
     psi = 0.631*[#   6]+0.292*[#   3]+0.012*[#  14]+0.009*[#  11]+0.006*[#  16]
          +0.003*[#   9]
    |psi|^2 = 0.952

 k =   0.7500000000  0.0000000000 -0.1250000000
==== e(   1) =     8.42437 eV ==== 
     psi = 0.431*[#  18]+0.368*[#   9]+0.088*[#  14]+0.022*[#   8]+0.018*[#  16]
          +0.015*[#   3]+0.012*[#  11]+0.011*[#  17]+0.009*[#   2]+0.008*[#  10]
          +0.007*[#   6]+0.005*[#  15]+0.003*[#  12]
    |psi|^2 = 0.999
==== e(   2) =     8.55065 eV ==== 
     psi = 0.545*[#  16]+0.379*[#  11]+0.014*[#   7]+0.014*[#   8]+0.010*[#  18]
          +0.010*[#   3]+0.009*[#   9]+0.007*[#   4]+0.005*[#   6]+0.002*[#   2]
          +0.002*[#  14]
    |psi|^2 = 0.999
==== e(   3) =    10.09493 eV ==== 
     psi = 0.364*[#  13]+0.312*[#  12]+0.071*[#   5]+0.069*[#  17]+0.049*[#   4]
          +0.033*[#  15]+0.025*[#  10]+0.024*[#   7]+0.023*[#   1]+0.010*[#  14]
          +0.007*[#  11]+0.005*[#  16]+0.003*[#   9]+0.001*[#   6]
    |psi|^2 = 0.996
==== e(   4) =    10.39468 eV ==== 
     psi = 0.471*[#  15]+0.373*[#  10]+0.037*[#  13]+0.032*[#  12]+0.030*[#   6]
          +0.015*[#   3]+0.008*[#  14]+0.007*[#  17]+0.006*[#  11]+0.004*[#  16]
          +0.003*[#   5]+0.002*[#   4]+0.001*[#   7]+0.001*[#   9]
    |psi|^2 = 0.991
==== e(   5) =    11.38787 eV ==== 
     psi = 0.298*[#  18]+0.259*[#   9]+0.138*[#  10]+0.111*[#  15]+0.100*[#  17]
          +0.055*[#  14]+0.025*[#  12]+0.006*[#   3]+0.005*[#   8]+0.002*[#   6]
          
    |psi|^2 = 1.000
==== e(   6) =    11.65900 eV ==== 
     psi = 0.405*[#  17]+0.234*[#  10]+0.181*[#  15]+0.108*[#  12]+0.037*[#  18]
          +0.010*[#   2]+0.007*[#   7]+0.005*[#   4]+0.003*[#   9]+0.002*[#  11]
          +0.002*[#  16]+0.002*[#   8]
    |psi|^2 = 0.999
==== e(   7) =    12.61877 eV ==== 
     psi = 0.253*[#  17]+0.184*[#  18]+0.172*[#  10]+0.152*[#   9]+0.130*[#  15]
          +0.075*[#  12]+0.028*[#  14]+0.001*[#  13]
    |psi|^2 = 1.000
==== e(   8) =    13.25257 eV ==== 
     psi = 0.293*[#  13]+0.240*[#  12]+0.137*[#  11]+0.104*[#  14]+0.095*[#  16]
          +0.085*[#  17]+0.018*[#   9]+0.011*[#   5]+0.010*[#   4]+0.005*[#   7]
          
    |psi|^2 = 0.998
==== e(   9) =    13.55509 eV ==== 
     psi = 0.398*[#  14]+0.235*[#  11]+0.161*[#  16]+0.089*[#   9]+0.052*[#  13]
          +0.018*[#   1]+0.012*[#   6]+0.009*[#  12]+0.007*[#   3]+0.005*[#  15]
          +0.003*[#  10]+0.002*[#  17]+0.002*[#   5]
    |psi|^2 = 0.997
==== e(  10) =    14.72765 eV ==== 
     psi = 0.270*[#  14]+0.186*[#  11]+0.174*[#  13]+0.137*[#  12]+0.129*[#  16]
          +0.064*[#   9]+0.037*[#  17]
    |psi|^2 = 1.000
==== e(  11) =    17.52644 eV ==== 
     psi = 0.311*[#   8]+0.223*[#   3]+0.215*[#   2]+0.105*[#   6]+0.031*[#   7]
          +0.030*[#  18]+0.020*[#   9]+0.018*[#  16]+0.016*[#   4]+0.010*[#  11]
          +0.006*[#  14]+0.004*[#  17]+0.003*[#  10]+0.002*[#  15]
    |psi|^2 = 0.995
==== e(  12) =    18.50729 eV ==== 
     psi = 0.272*[#   5]+0.204*[#   1]+0.196*[#   4]+0.090*[#   7]+0.057*[#  13]
          +0.040*[#  12]+0.036*[#  15]+0.032*[#   6]+0.022*[#  10]+0.017*[#   3]
          +0.011*[#  17]+0.007*[#  14]+0.005*[#  11]+0.004*[#  16]+0.002*[#   9]
          
    |psi|^2 = 0.994
==== e(  13) =    22.19250 eV ==== 
     psi = 0.494*[#   7]+0.259*[#   4]+0.178*[#   2]+0.010*[#  17]+0.008*[#  16]
          +0.007*[#  10]+0.005*[#  15]+0.005*[#  11]+0.003*[#  12]
    |psi|^2 = 0.970
==== e(  14) =    22.91119 eV ==== 
     psi = 0.460*[#   6]+0.256*[#   3]+0.181*[#   1]+0.018*[#  14]+0.015*[#  15]
          +0.014*[#  11]+0.009*[#  10]+0.009*[#  16]+0.005*[#   9]
    |psi|^2 = 0.970
==== e(  15) =    24.72576 eV ==== 
     psi = 0.475*[#   8]+0.289*[#   3]+0.174*[#   6]+0.006*[#  18]+0.005*[#   9]
          +0.002*[#  14]
    |psi|^2 = 0.953
==== e(  16) =    25.19072 eV ==== 
     psi = 0.468*[#   5]+0.292*[#   4]+0.163*[#   7]+0.012*[#  13]+0.010*[#  12]
          +0.003*[#  17]+0.001*[#  14]+0.001*[#  11]
    |psi|^2 = 0.952

 k =   0.0000000000  0.8750000000  0.0000000000
==== e(   1) =     8.04075 eV ==== 
     psi = 0.329*[#  18]+0.277*[#   9]+0.179*[#  16]+0.123*[#  11]+0.067*[#  14]
          +0.011*[#   8]+0.008*[#   3]+0.004*[#   6]
    |psi|^2 = 0.999
==== e(   2) =     8.04290 eV ==== 
     psi = 0.408*[#  16]+0.282*[#  11]+0.150*[#  18]+0.127*[#   9]+0.031*[#  14]
          
    |psi|^2 = 0.998
==== e(   3) =     9.82150 eV ==== 
     psi = 0.345*[#  13]+0.291*[#  12]+0.139*[#  15]+0.102*[#  10]+0.066*[#  17]
          +0.023*[#   5]+0.016*[#   4]+0.008*[#   7]
    |psi|^2 = 0.990
==== e(   4) =     9.88449 eV ==== 
     psi = 0.423*[#  15]+0.311*[#  10]+0.123*[#  13]+0.104*[#  12]+0.024*[#  17]
          
    |psi|^2 = 0.985
==== e(   5) =    12.42141 eV ==== 
     psi = 0.400*[#  10]+0.292*[#  15]+0.237*[#  17]+0.062*[#  12]+0.005*[#   7]
          +0.003*[#   4]
    |psi|^2 = 1.000
==== e(   6) =    12.42821 eV ==== 
     psi = 0.506*[#  18]+0.401*[#   9]+0.085*[#  14]+0.004*[#   8]+0.003*[#   3]
          +0.001*[#   6]
    |psi|^2 = 1.000
==== e(   7) =    12.59265 eV ==== 
     psi = 0.551*[#  17]+0.175*[#  10]+0.144*[#  12]+0.128*[#  15]
    |psi|^2 = 1.000
==== e(   8) =    14.46741 eV ==== 
     psi = 0.378*[#  11]+0.282*[#  14]+0.260*[#  16]+0.064*[#   9]+0.011*[#   6]
          +0.006*[#   3]
    |psi|^2 = 1.000
==== e(   9) =    14.47357 eV ==== 
     psi = 0.498*[#  13]+0.373*[#  12]+0.111*[#  17]+0.008*[#   5]+0.006*[#   4]
          +0.003*[#   7]
    |psi|^2 = 1.000
==== e(  10) =    14.70085 eV ==== 
     psi = 0.526*[#  14]+0.209*[#  11]+0.144*[#  16]+0.120*[#   9]
    |psi|^2 = 1.000
==== e(  11) =    20.26541 eV ==== 
     psi = 0.402*[#   8]+0.321*[#   3]+0.136*[#   6]+0.108*[#   2]+0.009*[#  18]
          +0.006*[#   9]+0.004*[#  16]+0.002*[#  14]+0.002*[#  11]
    |psi|^2 = 0.990
==== e(  12) =    20.79376 eV ==== 
     psi = 0.388*[#   5]+0.320*[#   4]+0.126*[#   7]+0.110*[#   1]+0.019*[#  13]
          +0.012*[#  12]+0.007*[#  15]+0.004*[#  10]+0.004*[#  17]
    |psi|^2 = 0.990
==== e(  13) =    22.73387 eV ==== 
     psi = 0.490*[#   8]+0.451*[#   3]+0.034*[#   6]+0.005*[#   9]+0.004*[#  18]
          
    |psi|^2 = 0.985
==== e(  14) =    22.73471 eV ==== 
     psi = 0.494*[#   7]+0.444*[#   4]+0.037*[#   5]+0.003*[#  12]+0.003*[#  10]
          +0.002*[#  17]+0.001*[#  15]
    |psi|^2 = 0.985
==== e(  15) =    23.08938 eV ==== 
     psi = 0.780*[#   6]+0.163*[#   3]+0.025*[#   8]+0.008*[#  14]+0.005*[#  11]
          +0.003*[#  16]
    |psi|^2 = 0.984
==== e(  16) =    23.08941 eV ==== 
     psi = 0.474*[#   5]+0.330*[#   7]+0.163*[#   4]+0.008*[#  13]+0.006*[#  12]
          +0.003*[#  17]
    |psi|^2 = 0.984

Lowdin Charges: 

     Atom #   1: total charge =   7.9875, s =  0.2990, 
     Atom #   1: total charge =   7.9875, p =  0.9511, 
     Atom #   1: total charge =   7.9875, d =  6.7374, 
     Spilling Parameter:   0.0016
 
     PROJWFC      :      7.54s CPU      8.43s WALL

 
   This run was terminated on:   8:37:19  17Aug2020            

=------------------------------------------------------------------------------=
   JOB DONE.
=------------------------------------------------------------------------------=
