
     Program PWSCF v.7.2 starts on 29Sep2025 at 20: 9:56 

     This program is part of the open-source Quantum ESPRESSO suite
     for quantum simulation of materials; please cite
         "P. Giannozzi et al., J. Phys.:Condens. Matter 21 395502 (2009);
         "P. Giannozzi et al., J. Phys.:Condens. Matter 29 465901 (2017);
         "P. Giannozzi et al., J. Chem. Phys. 152 154105 (2020);
          URL http://www.quantum-espresso.org", 
     in publications or presentations arising from this work. More details at
     http://www.quantum-espresso.org/quote

     Parallel version (MPI & OpenMP), running on      11 processor cores
     Number of MPI processes:                 1
     Threads/MPI process:                    11

     MPI processes distributed on     1 nodes
     0 MiB available memory on the printing compute node when the environment starts

     Reading input from aiida.in

     Current dimensions of program PWSCF are:
     Max number of different atomic species (ntypx) = 10
     Max number of k-points (npk) =  40000
     Max angular momentum in pseudopotentials (lmaxx) =  4
     Found identity + (  0.0000 -0.5000 -0.5000) symmetry
     This is a supercell, fractional translations are disabled

     Subspace diagonalization in iterative solution of the eigenvalue problem:
     a serial algorithm will be used


     G-vector sticks info
     --------------------
     sticks:   dense  smooth     PW     G-vecs:    dense   smooth      PW
     Sum        1649     829    249                50733    17941    2969

     Using Slab Decomposition



     bravais-lattice index     =            0
     lattice parameter (alat)  =       7.6156  a.u.
     unit-cell volume          =     441.6841 (a.u.)^3
     number of atoms/cell      =            8
     number of atomic types    =            2
     number of electrons       =        40.00
     number of Kohn-Sham states=           20
     kinetic-energy cutoff     =      45.0000  Ry
     charge density cutoff     =     360.0000  Ry
     scf convergence threshold =      3.2E-09
     mixing beta               =       0.4000
     number of iterations used =            8  plain     mixing
     Exchange-correlation= SLA  PW   PSX  PSC
                           (   1   4  10   8   0   0   0)

     Using Berry phase electric field
     In a.u.(Ry)  cartesian system of reference
        0.0000000000
        0.0000000000
        0.0010000000
     In a.u.(Ry)  crystal system of reference
        0.0000000000
        0.0000000000
        0.0010000000
     Number of iterative cycles:   1


     celldm(1)=   7.615596  celldm(2)=   0.000000  celldm(3)=   0.000000
     celldm(4)=   0.000000  celldm(5)=   0.000000  celldm(6)=   0.000000

     crystal axes: (cart. coord. in units of alat)
               a(1) = (   1.000000   0.000000   0.000000 )  
               a(2) = (   0.000000   1.000000   0.000000 )  
               a(3) = (   0.000000   0.000000   1.000000 )  

     reciprocal axes: (cart. coord. in units 2 pi/alat)
               b(1) = (  1.000000  0.000000  0.000000 )  
               b(2) = (  0.000000  1.000000  0.000000 )  
               b(3) = (  0.000000  0.000000  1.000000 )  


     PseudoPot. # 1 for F  read from file:
     ./pseudo/f_pbesol_v1.4.uspp.F.UPF
     MD5 check sum: d2815ecb49b17b99c5724ffd2f9bbd8d
     Pseudo is Ultrasoft, Zval =  7.0
     Generated by new atomic code, or converted to UPF format
     Using radial grid of  799 points,  4 beta functions with: 
                l(1) =   0
                l(2) =   0
                l(3) =   1
                l(4) =   1
     Q(r) pseudized with  8 coefficients,  rinner =    0.950   0.950   0.950


     PseudoPot. # 2 for Li read from file:
     ./pseudo/li_pbesol_v1.4.uspp.F.UPF
     MD5 check sum: aa28d9aeea6a965f2dc95ee9517b3536
     Pseudo is Ultrasoft, Zval =  3.0
     Generated by new atomic code, or converted to UPF format
     Using radial grid of  751 points,  5 beta functions with: 
                l(1) =   0
                l(2) =   0
                l(3) =   0
                l(4) =   1
                l(5) =   1
     Q(r) pseudized with 10 coefficients,  rinner =    1.150   1.150   1.150


     atomic species   valence    mass     pseudopotential
        F              7.00    18.99840     F ( 1.00)
        Li             3.00     6.94000     Li( 1.00)

     No symmetry found


                                    s                        frac. trans.

      isym =  1     identity                                     

 cryst.   s( 1) = (     1          0          0      )
                  (     0          1          0      )
                  (     0          0          1      )

 cart.    s( 1) = (  1.0000000  0.0000000  0.0000000 )
                  (  0.0000000  1.0000000  0.0000000 )
                  (  0.0000000  0.0000000  1.0000000 )


   Cartesian axes

     site n.     atom                  positions (alat units)
         1           Li  tau(   1) = (   0.0000000   0.0000000   0.0000000  )
         2           F   tau(   2) = (   0.5000000   0.0000000   0.0000000  )
         3           Li  tau(   3) = (   0.0000000   0.5000000   0.5000000  )
         4           F   tau(   4) = (   0.5000000   0.5000000   0.5000000  )
         5           Li  tau(   5) = (   0.5000000   0.0000000   0.5000000  )
         6           F   tau(   6) = (   0.0000000   0.0000000   0.5000000  )
         7           Li  tau(   7) = (   0.5000000   0.5000000   0.0000000  )
         8           F   tau(   8) = (   0.0000000   0.5000000   0.0000000  )

   Crystallographic axes

     site n.     atom                  positions (cryst. coord.)
         1           Li  tau(   1) = (  0.0000000  0.0000000  0.0000000  )
         2           F   tau(   2) = (  0.5000000  0.0000000  0.0000000  )
         3           Li  tau(   3) = (  0.0000000  0.5000000  0.5000000  )
         4           F   tau(   4) = (  0.5000000  0.5000000  0.5000000  )
         5           Li  tau(   5) = (  0.5000000  0.0000000  0.5000000  )
         6           F   tau(   6) = (  0.0000000  0.0000000  0.5000000  )
         7           Li  tau(   7) = (  0.5000000  0.5000000  0.0000000  )
         8           F   tau(   8) = (  0.0000000  0.5000000  0.0000000  )

     number of k points=     8
                       cart. coord. in units 2pi/alat
        k(    1) = (   0.0000000   0.0000000   0.0000000), wk =   0.2500000
        k(    2) = (   0.0000000   0.0000000   0.5000000), wk =   0.2500000
        k(    3) = (   0.0000000   0.5000000   0.0000000), wk =   0.2500000
        k(    4) = (   0.0000000   0.5000000   0.5000000), wk =   0.2500000
        k(    5) = (   0.5000000   0.0000000   0.0000000), wk =   0.2500000
        k(    6) = (   0.5000000   0.0000000   0.5000000), wk =   0.2500000
        k(    7) = (   0.5000000   0.5000000   0.0000000), wk =   0.2500000
        k(    8) = (   0.5000000   0.5000000   0.5000000), wk =   0.2500000

                       cryst. coord.
        k(    1) = (   0.0000000   0.0000000   0.0000000), wk =   0.2500000
        k(    2) = (   0.0000000   0.0000000   0.5000000), wk =   0.2500000
        k(    3) = (   0.0000000   0.5000000   0.0000000), wk =   0.2500000
        k(    4) = (   0.0000000   0.5000000   0.5000000), wk =   0.2500000
        k(    5) = (   0.5000000   0.0000000   0.0000000), wk =   0.2500000
        k(    6) = (   0.5000000   0.0000000   0.5000000), wk =   0.2500000
        k(    7) = (   0.5000000   0.5000000   0.0000000), wk =   0.2500000
        k(    8) = (   0.5000000   0.5000000   0.5000000), wk =   0.2500000

     Dense  grid:    50733 G-vectors     FFT dimensions: (  45,  45,  45)

     Smooth grid:    17941 G-vectors     FFT dimensions: (  36,  36,  36)


     Initial potential from superposition of free atoms

     starting charge      38.1968, renormalised to      40.0000
     Starting wfcs are   36 randomized atomic wfcs

--- MEMORY INFO REMOVED ---

     total cpu time spent up to now is        2.4 secs

     Self-consistent Calculation

     iteration #  1     ecut=    45.00 Ry     beta= 0.40
     Davidson diagonalization with overlap

---- Real-time Memory Report at c_bands before calling an iterative solver
             0 MiB given to the printing process from OS
             0 MiB allocation reported by mallinfo(arena+hblkhd)
             0 MiB available memory on the node where the printing process lives
------------------
     ethr =  1.00E-02,  avg # of iterations =  2.0

     Threshold (ethr) on eigenvalues was too large:
     Diagonalizing with lowered threshold

     Davidson diagonalization with overlap

---- Real-time Memory Report at c_bands before calling an iterative solver
             0 MiB given to the printing process from OS
             0 MiB allocation reported by mallinfo(arena+hblkhd)
             0 MiB available memory on the node where the printing process lives
------------------
     ethr =  3.25E-04,  avg # of iterations =  2.0

     Expectation value of exp(iGx):       (0.26430903924012733,-2.73656927295924824E-005)   1.0000000000000000     
     Electronic Dipole per cell (Ry a.u.)  -3.5494696493670538E-004
     Ionic Dipole per cell (Ry a.u.)   107.70079547904554     

     Expectation value of exp(iGx):        (0.26424985771501958,1.12102833085554546E-005)   1.0000000000000000     
     Electronic Dipole per cell (Ry a.u.)   1.4543564597158354E-004
     Ionic Dipole per cell (Ry a.u.)   107.70079547904555     

     Expectation value of exp(iGx):        (0.26426756431891019,2.19628746492834485E-003)   1.0000000000000000     
     Electronic Dipole per cell (Ry a.u.)   2.8490781405243679E-002
     Ionic Dipole per cell (Ry a.u.)   107.70079547904555     
Electronic Dipole on Cartesian axes
           1  -3.5494696493670538E-004
           2   1.4543564597158354E-004
           3   2.8490781405243679E-002
Ionic Dipole on Cartesian axes
           1   107.70079547904554     
           2   107.70079547904555     
           3   107.70079547904555     

     total cpu time spent up to now is        5.9 secs

     total energy              =    -252.74551204 Ry
     estimated scf accuracy    <       0.13885518 Ry

     iteration #  2     ecut=    45.00 Ry     beta= 0.40
     Davidson diagonalization with overlap

---- Real-time Memory Report at c_bands before calling an iterative solver
             0 MiB given to the printing process from OS
             0 MiB allocation reported by mallinfo(arena+hblkhd)
             0 MiB available memory on the node where the printing process lives
------------------
     ethr =  3.47E-04,  avg # of iterations =  2.0

     Expectation value of exp(iGx):        (0.27548262878515190,3.01256863578643664E-006)   1.0000000000000000     
     Electronic Dipole per cell (Ry a.u.)   3.7489683157483911E-005
     Ionic Dipole per cell (Ry a.u.)   107.70079547904554     

     Expectation value of exp(iGx):       (0.27546764732156520,-8.22407222159061236E-005)   1.0000000000000000     
     Electronic Dipole per cell (Ry a.u.)  -1.0234940943138007E-003
     Ionic Dipole per cell (Ry a.u.)   107.70079547904555     

     Expectation value of exp(iGx):        (0.27545837922835192,2.58750918890573956E-003)   1.0000000000000000     
     Electronic Dipole per cell (Ry a.u.)   3.2201950501894186E-002
     Ionic Dipole per cell (Ry a.u.)   107.70079547904555     
Electronic Dipole on Cartesian axes
           1   3.7489683157483911E-005
           2  -1.0234940943138007E-003
           3   3.2201950501894186E-002
Ionic Dipole on Cartesian axes
           1   107.70079547904554     
           2   107.70079547904555     
           3   107.70079547904555     

     total cpu time spent up to now is        7.7 secs

     total energy              =    -252.74667652 Ry
     estimated scf accuracy    <       0.02367474 Ry

     iteration #  3     ecut=    45.00 Ry     beta= 0.40
     Davidson diagonalization with overlap

---- Real-time Memory Report at c_bands before calling an iterative solver
             0 MiB given to the printing process from OS
             0 MiB allocation reported by mallinfo(arena+hblkhd)
             0 MiB available memory on the node where the printing process lives
------------------
     ethr =  5.92E-05,  avg # of iterations =  2.0

     Expectation value of exp(iGx):       (0.27684719076276199,-2.34707835573114457E-005)   1.0000000000000000     
     Electronic Dipole per cell (Ry a.u.)  -2.9064074948779593E-004
     Ionic Dipole per cell (Ry a.u.)   107.70079547904554     

     Expectation value of exp(iGx):       (0.27684800700496764,-4.84915979429446497E-005)   1.0000000000000000     
     Electronic Dipole per cell (Ry a.u.)  -6.0047389011906886E-004
     Ionic Dipole per cell (Ry a.u.)   107.70079547904555     

     Expectation value of exp(iGx):        (0.27684137673321318,2.61078848341118105E-003)   1.0000000000000000     
     Electronic Dipole per cell (Ry a.u.)   3.2329340985406969E-002
     Ionic Dipole per cell (Ry a.u.)   107.70079547904555     
Electronic Dipole on Cartesian axes
           1  -2.9064074948779593E-004
           2  -6.0047389011906886E-004
           3   3.2329340985406969E-002
Ionic Dipole on Cartesian axes
           1   107.70079547904554     
           2   107.70079547904555     
           3   107.70079547904555     

     total cpu time spent up to now is        9.8 secs

     total energy              =    -252.74535778 Ry
     estimated scf accuracy    <       0.00448454 Ry

     iteration #  4     ecut=    45.00 Ry     beta= 0.40
     Davidson diagonalization with overlap

---- Real-time Memory Report at c_bands before calling an iterative solver
             0 MiB given to the printing process from OS
             0 MiB allocation reported by mallinfo(arena+hblkhd)
             0 MiB available memory on the node where the printing process lives
------------------
     ethr =  1.12E-05,  avg # of iterations =  3.1

     Expectation value of exp(iGx):       (0.27683671620465267,-1.09726609353966760E-005)   1.0000000000000000     
     Electronic Dipole per cell (Ry a.u.)  -1.3588055384223754E-004
     Ionic Dipole per cell (Ry a.u.)   107.70079547904554     

     Expectation value of exp(iGx):       (0.27684289588129490,-2.71168088385096405E-005)   1.0000000000000000     
     Electronic Dipole per cell (Ry a.u.)  -3.3579500603356574E-004
     Ionic Dipole per cell (Ry a.u.)   107.70079547904555     

     Expectation value of exp(iGx):        (0.27682555600206271,2.59391286498087629E-003)   1.0000000000000000     
     Electronic Dipole per cell (Ry a.u.)   3.2122218402914723E-002
     Ionic Dipole per cell (Ry a.u.)   107.70079547904555     
Electronic Dipole on Cartesian axes
           1  -1.3588055384223754E-004
           2  -3.3579500603356574E-004
           3   3.2122218402914723E-002
Ionic Dipole on Cartesian axes
           1   107.70079547904554     
           2   107.70079547904555     
           3   107.70079547904555     

     total cpu time spent up to now is       11.5 secs

     total energy              =    -252.74622540 Ry
     estimated scf accuracy    <       0.00008763 Ry

     iteration #  5     ecut=    45.00 Ry     beta= 0.40
     Davidson diagonalization with overlap

---- Real-time Memory Report at c_bands before calling an iterative solver
             0 MiB given to the printing process from OS
             0 MiB allocation reported by mallinfo(arena+hblkhd)
             0 MiB available memory on the node where the printing process lives
------------------
     ethr =  2.19E-07,  avg # of iterations =  3.0

     Expectation value of exp(iGx):        (0.27685834362164374,2.12827019481213318E-006)   1.0000000000000000     
     Electronic Dipole per cell (Ry a.u.)   2.6353492910366589E-005
     Ionic Dipole per cell (Ry a.u.)   107.70079547904554     

     Expectation value of exp(iGx):       (0.27685991620084272,-9.75250276468107598E-006)   1.0000000000000000     
     Electronic Dipole per cell (Ry a.u.)  -1.2076053742975104E-004
     Ionic Dipole per cell (Ry a.u.)   107.70079547904555     

     Expectation value of exp(iGx):        (0.27684527082046745,2.59410670971890744E-003)   1.0000000000000000     
     Electronic Dipole per cell (Ry a.u.)   3.2122331238400047E-002
     Ionic Dipole per cell (Ry a.u.)   107.70079547904555     
Electronic Dipole on Cartesian axes
           1   2.6353492910366589E-005
           2  -1.2076053742975104E-004
           3   3.2122331238400047E-002
Ionic Dipole on Cartesian axes
           1   107.70079547904554     
           2   107.70079547904555     
           3   107.70079547904555     

     total cpu time spent up to now is       13.8 secs

     total energy              =    -252.74624686 Ry
     estimated scf accuracy    <       0.00004600 Ry

     iteration #  6     ecut=    45.00 Ry     beta= 0.40
     Davidson diagonalization with overlap

---- Real-time Memory Report at c_bands before calling an iterative solver
             0 MiB given to the printing process from OS
             0 MiB allocation reported by mallinfo(arena+hblkhd)
             0 MiB available memory on the node where the printing process lives
------------------
     ethr =  1.15E-07,  avg # of iterations =  2.0

     Expectation value of exp(iGx):        (0.27683510884704415,9.58400366412532001E-007)   1.0000000000000000     
     Electronic Dipole per cell (Ry a.u.)   1.1868472884898432E-005
     Ionic Dipole per cell (Ry a.u.)   107.70079547904554     

     Expectation value of exp(iGx):       (0.27683704044219098,-5.27144410996730640E-006)   1.0000000000000000     
     Electronic Dipole per cell (Ry a.u.)  -6.5279143389737498E-005
     Ionic Dipole per cell (Ry a.u.)   107.70079547904555     

     Expectation value of exp(iGx):        (0.27681925583944672,2.59554056049993934E-003)   1.0000000000000000     
     Electronic Dipole per cell (Ry a.u.)   3.2143105591540495E-002
     Ionic Dipole per cell (Ry a.u.)   107.70079547904555     
Electronic Dipole on Cartesian axes
           1   1.1868472884898432E-005
           2  -6.5279143389737498E-005
           3   3.2143105591540495E-002
Ionic Dipole on Cartesian axes
           1   107.70079547904554     
           2   107.70079547904555     
           3   107.70079547904555     

     total cpu time spent up to now is       15.7 secs

     total energy              =    -252.74625378 Ry
     estimated scf accuracy    <       0.00000071 Ry

     iteration #  7     ecut=    45.00 Ry     beta= 0.40
     Davidson diagonalization with overlap

---- Real-time Memory Report at c_bands before calling an iterative solver
             0 MiB given to the printing process from OS
             0 MiB allocation reported by mallinfo(arena+hblkhd)
             0 MiB available memory on the node where the printing process lives
------------------
     ethr =  1.77E-09,  avg # of iterations =  4.0

     Expectation value of exp(iGx):        (0.27691836504286893,5.31470506619756289E-007)   1.0000000000000000     
     Electronic Dipole per cell (Ry a.u.)   6.5795538891915891E-006
     Ionic Dipole per cell (Ry a.u.)   107.70079547904554     

     Expectation value of exp(iGx):       (0.27691890412136833,-9.83313971919732237E-007)   1.0000000000000000     
     Electronic Dipole per cell (Ry a.u.)  -1.2173308947402390E-005
     Ionic Dipole per cell (Ry a.u.)   107.70079547904555     

     Expectation value of exp(iGx):        (0.27690465810446308,2.59758733575057854E-003)   1.0000000000000000     
     Electronic Dipole per cell (Ry a.u.)   3.2158530580947461E-002
     Ionic Dipole per cell (Ry a.u.)   107.70079547904555     
Electronic Dipole on Cartesian axes
           1   6.5795538891915891E-006
           2  -1.2173308947402390E-005
           3   3.2158530580947461E-002
Ionic Dipole on Cartesian axes
           1   107.70079547904554     
           2   107.70079547904555     
           3   107.70079547904555     

     total cpu time spent up to now is       18.4 secs

     total energy              =    -252.74625240 Ry
     estimated scf accuracy    <       0.00000434 Ry

     iteration #  8     ecut=    45.00 Ry     beta= 0.40
     Davidson diagonalization with overlap

---- Real-time Memory Report at c_bands before calling an iterative solver
             0 MiB given to the printing process from OS
             0 MiB allocation reported by mallinfo(arena+hblkhd)
             0 MiB available memory on the node where the printing process lives
------------------
     ethr =  1.77E-09,  avg # of iterations =  3.0

     Expectation value of exp(iGx):        (0.27688884933577579,2.29139145708532123E-007)   1.0000000000000000     
     Electronic Dipole per cell (Ry a.u.)   2.8370230308958784E-006
     Ionic Dipole per cell (Ry a.u.)   107.70079547904554     

     Expectation value of exp(iGx):        (0.27688899664536576,8.57320866030740289E-009)   1.0000000000000000     
     Electronic Dipole per cell (Ry a.u.)   1.0614675813181413E-007
     Ionic Dipole per cell (Ry a.u.)   107.70079547904555     

     Expectation value of exp(iGx):        (0.27687536576497890,2.59805833928229441E-003)   1.0000000000000000     
     Electronic Dipole per cell (Ry a.u.)   3.2167763999845125E-002
     Ionic Dipole per cell (Ry a.u.)   107.70079547904555     
Electronic Dipole on Cartesian axes
           1   2.8370230308958784E-006
           2   1.0614675813181413E-007
           3   3.2167763999845125E-002
Ionic Dipole on Cartesian axes
           1   107.70079547904554     
           2   107.70079547904555     
           3   107.70079547904555     

     total cpu time spent up to now is       21.1 secs

     total energy              =    -252.74625286 Ry
     estimated scf accuracy    <       0.00000010 Ry

     iteration #  9     ecut=    45.00 Ry     beta= 0.40
     Davidson diagonalization with overlap

---- Real-time Memory Report at c_bands before calling an iterative solver
             0 MiB given to the printing process from OS
             0 MiB allocation reported by mallinfo(arena+hblkhd)
             0 MiB available memory on the node where the printing process lives
------------------
     ethr =  2.56E-10,  avg # of iterations =  2.0

     Expectation value of exp(iGx):       (0.27687915269062829,-8.26167624444660880E-009)   1.0000000000000000     
     Electronic Dipole per cell (Ry a.u.)  -1.0229324436882188E-007
     Ionic Dipole per cell (Ry a.u.)   107.70079547904554     

     Expectation value of exp(iGx):        (0.27687912608664950,2.84047681852363389E-008)   1.0000000000000000     
     Electronic Dipole per cell (Ry a.u.)   3.5169814047746414E-007
     Ionic Dipole per cell (Ry a.u.)   107.70079547904555     

     Expectation value of exp(iGx):        (0.27686565575708172,2.59814664642110020E-003)   1.0000000000000000     
     Electronic Dipole per cell (Ry a.u.)   3.2169985441129284E-002
     Ionic Dipole per cell (Ry a.u.)   107.70079547904555     
Electronic Dipole on Cartesian axes
           1  -1.0229324436882188E-007
           2   3.5169814047746414E-007
           3   3.2169985441129284E-002
Ionic Dipole on Cartesian axes
           1   107.70079547904554     
           2   107.70079547904555     
           3   107.70079547904555     

     total cpu time spent up to now is       23.4 secs

     total energy              =    -252.74625285 Ry
     estimated scf accuracy    <       0.00000003 Ry

     iteration # 10     ecut=    45.00 Ry     beta= 0.40
     Davidson diagonalization with overlap

---- Real-time Memory Report at c_bands before calling an iterative solver
             0 MiB given to the printing process from OS
             0 MiB allocation reported by mallinfo(arena+hblkhd)
             0 MiB available memory on the node where the printing process lives
------------------
     ethr =  6.55E-11,  avg # of iterations =  2.0

     Expectation value of exp(iGx):       (0.27688040217208731,-1.12326818558052684E-008)   1.0000000000000000     
     Electronic Dipole per cell (Ry a.u.)  -1.3907859019961591E-007
     Ionic Dipole per cell (Ry a.u.)   107.70079547904554     

     Expectation value of exp(iGx):        (0.27688042508585387,1.02433718323520269E-008)   1.0000000000000000     
     Electronic Dipole per cell (Ry a.u.)   1.2682933726102311E-007
     Ionic Dipole per cell (Ry a.u.)   107.70079547904555     

     Expectation value of exp(iGx):        (0.27686693406235852,2.59807028823370130E-003)   1.0000000000000000     
     Electronic Dipole per cell (Ry a.u.)   3.2168891520403829E-002
     Ionic Dipole per cell (Ry a.u.)   107.70079547904555     
Electronic Dipole on Cartesian axes
           1  -1.3907859019961591E-007
           2   1.2682933726102311E-007
           3   3.2168891520403829E-002
Ionic Dipole on Cartesian axes
           1   107.70079547904554     
           2   107.70079547904555     
           3   107.70079547904555     

     total cpu time spent up to now is       25.4 secs

     End of self-consistent calculation

--- OCCUPATIONS REMOVED ---

     highest occupied level (ev):     0.7735

!    total energy              =    -252.74625285 Ry
     estimated scf accuracy    <          2.3E-09 Ry

     The total energy is the sum of the following terms:
     one-electron contribution =    -107.79516186 Ry
     hartree contribution      =      69.52494694 Ry
     xc contribution           =     -50.65648521 Ry
     ewald contribution        =    -163.71181975 Ry

     convergence has been achieved in  10 iterations

     Forces acting on atoms (cartesian axes, Ry/au):

     atom    1 type  2   force =    -0.00000074    0.00000031    0.00149244
     atom    2 type  1   force =     0.00000119   -0.00000083   -0.00149270
     atom    3 type  2   force =    -0.00000019   -0.00000038    0.00149345
     atom    4 type  1   force =     0.00000111    0.00000056   -0.00149465
     atom    5 type  2   force =     0.00000019    0.00000011    0.00149323
     atom    6 type  1   force =    -0.00000062   -0.00000008   -0.00149419
     atom    7 type  2   force =     0.00000046    0.00000002    0.00149485
     atom    8 type  1   force =    -0.00000140    0.00000029   -0.00149243
     The non-local contrib.  to forces
     atom    1 type  2   force =    -0.00000040    0.00000038   -0.00250144
     atom    2 type  1   force =     0.00000134    0.00000013   -0.00721167
     atom    3 type  2   force =    -0.00000012   -0.00000004   -0.00250143
     atom    4 type  1   force =     0.00000110    0.00000138   -0.00721246
     atom    5 type  2   force =     0.00000114    0.00000026   -0.00249967
     atom    6 type  1   force =    -0.00000128   -0.00000108   -0.00721288
     atom    7 type  2   force =     0.00000062    0.00000002   -0.00249944
     atom    8 type  1   force =    -0.00000087    0.00000058   -0.00721169
     The ionic contribution  to forces
     atom    1 type  2   force =     0.00000000    0.00000000    0.00000000
     atom    2 type  1   force =     0.00000000    0.00000000    0.00000000
     atom    3 type  2   force =     0.00000000   -0.00000000   -0.00000000
     atom    4 type  1   force =     0.00000000    0.00000000    0.00000000
     atom    5 type  2   force =    -0.00000000    0.00000000   -0.00000000
     atom    6 type  1   force =     0.00000000    0.00000000    0.00000000
     atom    7 type  2   force =    -0.00000000   -0.00000000    0.00000000
     atom    8 type  1   force =     0.00000000    0.00000000    0.00000000
     The local contribution  to forces
     atom    1 type  2   force =    -0.00000080    0.00000008    0.00002206
     atom    2 type  1   force =     0.00000155   -0.00000433   -0.00072727
     atom    3 type  2   force =    -0.00000063    0.00000023    0.00002185
     atom    4 type  1   force =     0.00000161   -0.00000183   -0.00072792
     atom    5 type  2   force =     0.00000116   -0.00000025    0.00002242
     atom    6 type  1   force =    -0.00000282   -0.00000123   -0.00072887
     atom    7 type  2   force =     0.00000066    0.00000025    0.00002247
     atom    8 type  1   force =     0.00000055   -0.00000336   -0.00072916
     The core correction contribution to forces
     atom    1 type  2   force =     0.00000000    0.00000000    0.00000000
     atom    2 type  1   force =     0.00000000    0.00000000    0.00000000
     atom    3 type  2   force =     0.00000000    0.00000000    0.00000000
     atom    4 type  1   force =     0.00000000    0.00000000    0.00000000
     atom    5 type  2   force =     0.00000000    0.00000000    0.00000000
     atom    6 type  1   force =     0.00000000    0.00000000    0.00000000
     atom    7 type  2   force =     0.00000000    0.00000000    0.00000000
     atom    8 type  1   force =     0.00000000    0.00000000    0.00000000
     The Hubbard contrib.    to forces
     atom    1 type  2   force =     0.00000000    0.00000000    0.00000000
     atom    2 type  1   force =     0.00000000    0.00000000    0.00000000
     atom    3 type  2   force =     0.00000000    0.00000000    0.00000000
     atom    4 type  1   force =     0.00000000    0.00000000    0.00000000
     atom    5 type  2   force =     0.00000000    0.00000000    0.00000000
     atom    6 type  1   force =     0.00000000    0.00000000    0.00000000
     atom    7 type  2   force =     0.00000000    0.00000000    0.00000000
     atom    8 type  1   force =     0.00000000    0.00000000    0.00000000
     The SCF correction term to forces
     atom    1 type  2   force =     0.00000052    0.00000003   -0.00000030
     atom    2 type  1   force =    -0.00000164    0.00000356    0.00000261
     atom    3 type  2   force =     0.00000061   -0.00000039    0.00000092
     atom    4 type  1   force =    -0.00000155    0.00000120    0.00000211
     atom    5 type  2   force =    -0.00000206    0.00000028   -0.00000163
     atom    6 type  1   force =     0.00000353    0.00000242    0.00000394
     atom    7 type  2   force =    -0.00000077   -0.00000007   -0.00000030
     atom    8 type  1   force =    -0.00000102    0.00000325    0.00000480

     Total force =     0.004224     Total SCF correction =     0.000010


     Computing stress (Cartesian axis) and pressure

     Message from routine stres:
     stress with USPP and electric fields (Berry) not implemented

     Writing all to output data dir ./out/aiida.save/

--- TIMINGS REMOVED ---

     PWSCF        :   3m 6.79s CPU     26.12s WALL


   This run was terminated on:  20:10:22  29Sep2025            

=------------------------------------------------------------------------------=
   JOB DONE.
=------------------------------------------------------------------------------=
