
     Program PWSCF v.6.6 starts on 10Feb2023 at 13:11: 1 

     This program is part of the open-source Quantum ESPRESSO suite
     for quantum simulation of materials; please cite
         "P. Giannozzi et al., J. Phys.:Condens. Matter 21 395502 (2009);
         "P. Giannozzi et al., J. Phys.:Condens. Matter 29 465901 (2017);
          URL http://www.quantum-espresso.org", 
     in publications or presentations arising from this work. More details at
     http://www.quantum-espresso.org/quote

     Parallel version (MPI), running on     1 processors

     MPI processes distributed on     1 nodes
     Fft bands division:     nmany     =       1
     Reading input from aiida.in

     Current dimensions of program PWSCF are:
     Max number of different atomic species (ntypx) = 10
     Max number of k-points (npk) =  40000
     Max angular momentum in pseudopotentials (lmaxx) =  3

     Subspace diagonalization in iterative solution of the eigenvalue problem:
     a serial algorithm will be used

     Message from routine setup:
     using ibrav=0 with symmetry is DISCOURAGED, use correct ibrav instead

     G-vector sticks info
     --------------------
     sticks:   dense  smooth     PW     G-vecs:    dense   smooth      PW
     Sum         859     433    127                16889     5985     965



     bravais-lattice index     =            0
     lattice parameter (alat)  =       7.2558  a.u.
     unit-cell volume          =     270.1072 (a.u.)^3
     number of atoms/cell      =            2
     number of atomic types    =            1
     number of electrons       =         8.00
     number of Kohn-Sham states=            4
     kinetic-energy cutoff     =      30.0000  Ry
     charge density cutoff     =     240.0000  Ry
     convergence threshold     =      1.0E-06
     mixing beta               =       0.7000
     number of iterations used =            8  plain     mixing
     Exchange-correlation= PBE
                           (   1   4   3   4   0   0   0)
     nstep                     =            1


     celldm(1)=   7.255773  celldm(2)=   0.000000  celldm(3)=   0.000000
     celldm(4)=   0.000000  celldm(5)=   0.000000  celldm(6)=   0.000000

     crystal axes: (cart. coord. in units of alat)
               a(1) = (   0.000000   0.707107   0.707107 )  
               a(2) = (   0.707107   0.000000   0.707107 )  
               a(3) = (   0.707107   0.707107   0.000000 )  

     reciprocal axes: (cart. coord. in units 2 pi/alat)
               b(1) = ( -0.707107  0.707107  0.707107 )  
               b(2) = (  0.707107 -0.707107  0.707107 )  
               b(3) = (  0.707107  0.707107 -0.707107 )  


     PseudoPot. # 1 for Si read from file:
     ./pseudo/Si.pbe-n-rrkjus_psl.1.0.0.UPF
     MD5 check sum: 0b0bb1205258b0d07b9f9672cf965d36
     Pseudo is Ultrasoft + core correction, Zval =  4.0
     Generated using "atomic" code by A. Dal Corso v.5.1
     Using radial grid of 1141 points,  6 beta functions with: 
                l(1) =   0
                l(2) =   0
                l(3) =   1
                l(4) =   1
                l(5) =   2
                l(6) =   2
     Q(r) pseudized with 0 coefficients 


     atomic species   valence    mass     pseudopotential
        Si             4.00    28.08500     Si( 1.00)

      4 Sym. Ops. (no inversion) found


                                    s                        frac. trans.

      isym =  1     identity                                     

 cryst.   s( 1) = (     1          0          0      )
                  (     0          1          0      )
                  (     0          0          1      )

 cart.    s( 1) = (  1.0000000  0.0000000  0.0000000 )
                  (  0.0000000  1.0000000  0.0000000 )
                  (  0.0000000  0.0000000  1.0000000 )


      isym =  2     180 deg rotation - cart. axis [1,0,0]        

 cryst.   s( 2) = (    -1          0          0      )
                  (    -1          0          1      )
                  (    -1          1          0      )

 cart.    s( 2) = (  1.0000000  0.0000000  0.0000000 )
                  (  0.0000000 -1.0000000  0.0000000 )
                  (  0.0000000  0.0000000 -1.0000000 )


      isym =  3     inv. 180 deg rotation - cart. axis [0,1,1]   

 cryst.   s( 3) = (    -1          0          0      )
                  (    -1          1          0      )
                  (    -1          0          1      )

 cart.    s( 3) = (  1.0000000  0.0000000  0.0000000 )
                  (  0.0000000  0.0000000 -1.0000000 )
                  (  0.0000000 -1.0000000  0.0000000 )


      isym =  4     inv. 180 deg rotation - cart. axis [0,1,-1]  

 cryst.   s( 4) = (     1          0          0      )
                  (     0          0          1      )
                  (     0          1          0      )

 cart.    s( 4) = (  1.0000000  0.0000000  0.0000000 )
                  (  0.0000000  0.0000000  1.0000000 )
                  (  0.0000000  1.0000000  0.0000000 )


   Cartesian axes

     site n.     atom                  positions (alat units)
         1           Si  tau(   1) = (   0.0000000   0.0000000   0.0000000  )
         2           Si  tau(   2) = (   0.6094401   0.3535534   0.3535534  )

   Crystallographic axes

     site n.     atom                  positions (cryst. coord.)
         1           Si  tau(   1) = (  0.0000000  0.0000000  0.0000000  )
         2           Si  tau(   2) = (  0.0690608  0.4309392  0.4309392  )

     number of k points=     5
                       cart. coord. in units 2pi/alat
        k(    1) = (   0.0000000   0.0000000   0.0000000), wk =   0.2500000
        k(    2) = (  -0.3535534  -0.3535534   0.3535534), wk =   0.5000000
        k(    3) = (  -0.7071068   0.0000000   0.0000000), wk =   0.2500000
        k(    4) = (  -0.3535534  -0.3535534  -0.3535534), wk =   0.5000000
        k(    5) = (   0.0000000  -0.7071068   0.0000000), wk =   0.5000000

                       cryst. coord.
        k(    1) = (   0.0000000   0.0000000   0.0000000), wk =   0.2500000
        k(    2) = (   0.0000000   0.0000000  -0.5000000), wk =   0.5000000
        k(    3) = (   0.0000000  -0.5000000  -0.5000000), wk =   0.2500000
        k(    4) = (  -0.5000000  -0.5000000  -0.5000000), wk =   0.5000000
        k(    5) = (  -0.5000000   0.0000000  -0.5000000), wk =   0.5000000

     Dense  grid:    16889 G-vectors     FFT dimensions: (  36,  36,  36)

     Smooth grid:     5985 G-vectors     FFT dimensions: (  25,  25,  25)

     Dynamical RAM for                 wfc:       0.05 MB

     Dynamical RAM for     wfc (w. buffer):       0.27 MB

     Dynamical RAM for           str. fact:       0.26 MB

     Dynamical RAM for           local pot:       0.00 MB

     Dynamical RAM for          nlocal pot:       0.41 MB

     Dynamical RAM for                qrad:       1.24 MB

     Dynamical RAM for          rho,v,vnew:       1.84 MB

     Dynamical RAM for               rhoin:       0.61 MB

     Dynamical RAM for            rho*nmix:       4.12 MB

     Dynamical RAM for           G-vectors:       1.01 MB

     Dynamical RAM for          h,s,v(r/c):       0.00 MB

     Dynamical RAM for          <psi|beta>:       0.00 MB

     Dynamical RAM for                 psi:       0.09 MB

     Dynamical RAM for                hpsi:       0.09 MB

     Dynamical RAM for                spsi:       0.09 MB

     Dynamical RAM for      wfcinit/wfcrot:       0.18 MB

     Dynamical RAM for           addusdens:      48.45 MB

     Dynamical RAM for          addusforce:      49.10 MB

     Estimated static dynamical RAM per process >      12.07 MB

     Estimated max dynamical RAM per process >      61.17 MB

     Initial potential from superposition of free atoms

     starting charge    7.99888, renormalised to    8.00000
     Starting wfcs are    8 randomized atomic wfcs

     total cpu time spent up to now is        0.5 secs

     Self-consistent Calculation

     iteration #  1     ecut=    30.00 Ry     beta= 0.70
     Davidson diagonalization with overlap
     ethr =  1.00E-02,  avg # of iterations =  2.0

     total cpu time spent up to now is        0.6 secs

     total energy              =     -22.32662371 Ry
     estimated scf accuracy    <       0.10751365 Ry

     iteration #  2     ecut=    30.00 Ry     beta= 0.70
     Davidson diagonalization with overlap
     ethr =  1.34E-03,  avg # of iterations =  1.2

     total cpu time spent up to now is        0.7 secs

     total energy              =     -22.33357102 Ry
     estimated scf accuracy    <       0.00420184 Ry

     iteration #  3     ecut=    30.00 Ry     beta= 0.70
     Davidson diagonalization with overlap
     ethr =  5.25E-05,  avg # of iterations =  4.0

     total cpu time spent up to now is        0.8 secs

     total energy              =     -22.33604306 Ry
     estimated scf accuracy    <       0.00053191 Ry

     iteration #  4     ecut=    30.00 Ry     beta= 0.70
     Davidson diagonalization with overlap
     ethr =  6.65E-06,  avg # of iterations =  3.2

     total cpu time spent up to now is        1.0 secs

     total energy              =     -22.33622407 Ry
     estimated scf accuracy    <       0.00007582 Ry

     iteration #  5     ecut=    30.00 Ry     beta= 0.70
     Davidson diagonalization with overlap
     ethr =  9.48E-07,  avg # of iterations =  5.6

     total cpu time spent up to now is        1.1 secs

     total energy              =     -22.33626590 Ry
     estimated scf accuracy    <       0.00007203 Ry

     iteration #  6     ecut=    30.00 Ry     beta= 0.70
     Davidson diagonalization with overlap
     ethr =  9.00E-07,  avg # of iterations =  1.2

     total cpu time spent up to now is        1.2 secs

     total energy              =     -22.33626270 Ry
     estimated scf accuracy    <       0.00001520 Ry

     iteration #  7     ecut=    30.00 Ry     beta= 0.70
     Davidson diagonalization with overlap
     ethr =  1.90E-07,  avg # of iterations =  5.8

     total cpu time spent up to now is        1.3 secs

     total energy              =     -22.33627727 Ry
     estimated scf accuracy    <       0.00000979 Ry

     iteration #  8     ecut=    30.00 Ry     beta= 0.70
     Davidson diagonalization with overlap
     ethr =  1.22E-07,  avg # of iterations =  1.0

     total cpu time spent up to now is        1.4 secs

     total energy              =     -22.33627688 Ry
     estimated scf accuracy    <       0.00001278 Ry

     iteration #  9     ecut=    30.00 Ry     beta= 0.70
     Davidson diagonalization with overlap
     ethr =  1.22E-07,  avg # of iterations =  1.0

     total cpu time spent up to now is        1.6 secs

     total energy              =     -22.33627040 Ry
     estimated scf accuracy    <       0.00001164 Ry

     iteration # 10     ecut=    30.00 Ry     beta= 0.70
     Davidson diagonalization with overlap
     ethr =  1.22E-07,  avg # of iterations =  4.0

     total cpu time spent up to now is        1.8 secs

     total energy              =     -22.33627345 Ry
     estimated scf accuracy    <       0.00000377 Ry

     iteration # 11     ecut=    30.00 Ry     beta= 0.70
     Davidson diagonalization with overlap
     ethr =  4.71E-08,  avg # of iterations =  1.4

     total cpu time spent up to now is        1.9 secs

     total energy              =     -22.33627335 Ry
     estimated scf accuracy    <       0.00000128 Ry

     iteration # 12     ecut=    30.00 Ry     beta= 0.70
     Davidson diagonalization with overlap
     ethr =  1.60E-08,  avg # of iterations =  2.0

     total cpu time spent up to now is        2.1 secs

     End of self-consistent calculation

          k = 0.0000 0.0000 0.0000 (   749 PWs)   bands (ev):

    -6.0595   3.0818   6.7230   7.4248

     occupation numbers 
     1.0000   1.0000   1.0000   1.0000

          k =-0.3536-0.3536 0.3536 (   754 PWs)   bands (ev):

    -3.0198  -2.5526   5.1999   6.7805

     occupation numbers 
     1.0000   1.0000   1.0000   1.0000

          k =-0.7071 0.0000 0.0000 (   740 PWs)   bands (ev):

    -3.5804   0.7669   1.6982   3.9413

     occupation numbers 
     1.0000   1.0000   1.0000   1.0000

          k =-0.3536-0.3536-0.3536 (   754 PWs)   bands (ev):

    -4.4630   0.6787   2.5986   6.6548

     occupation numbers 
     1.0000   1.0000   1.0000   1.0000

          k = 0.0000-0.7071 0.0000 (   740 PWs)   bands (ev):

    -2.2666  -2.2664   4.4288   4.4290

     occupation numbers 
     1.0000   1.0000   1.0000   1.0000

     highest occupied level (ev):     7.4248

!    total energy              =     -22.33627328 Ry
     estimated scf accuracy    <       0.00000041 Ry

     The total energy is the sum of the following terms:
     one-electron contribution =       4.99326179 Ry
     hartree contribution      =       1.35479708 Ry
     xc contribution           =     -12.44531417 Ry
     ewald contribution        =     -16.23901797 Ry

     convergence has been achieved in  12 iterations

     Forces acting on atoms (cartesian axes, Ry/au):

     atom    1 type  1   force =     0.16212208    0.00000000    0.00000000
     atom    2 type  1   force =    -0.16212208    0.00000000    0.00000000
     The non-local contrib.  to forces
     atom    1 type  1   force =     0.17245688    0.00000000    0.00000000
     atom    2 type  1   force =    -0.17241605    0.00000000    0.00000000
     The ionic contribution  to forces
     atom    1 type  1   force =     0.32660339   -0.00000000   -0.00000000
     atom    2 type  1   force =    -0.32660339    0.00000000    0.00000000
     The local contribution  to forces
     atom    1 type  1   force =    -0.31676535    0.00000000    0.00000000
     atom    2 type  1   force =     0.31670946   -0.00000000   -0.00000000
     The core correction contribution to forces
     atom    1 type  1   force =    -0.02014328    0.00000000    0.00000000
     atom    2 type  1   force =     0.02018436    0.00000000    0.00000000
     The Hubbard contrib.    to forces
     atom    1 type  1   force =     0.00000000    0.00000000    0.00000000
     atom    2 type  1   force =     0.00000000    0.00000000    0.00000000
     The SCF correction term to forces
     atom    1 type  1   force =    -0.00000814   -0.00000000   -0.00000000
     atom    2 type  1   force =     0.00002497    0.00000000    0.00000000

     Total force =     0.229275     Total SCF correction =     0.000026

     BFGS Geometry Optimization

     number of scf cycles    =   1
     number of bfgs steps    =   0

     energy   new            =     -22.3362732799 Ry

     new trust radius        =       0.1621220787 bohr

     The maximum number of steps has been reached.

     End of BFGS Geometry Optimization

ATOMIC_POSITIONS (angstrom)
Si            0.0857913094        0.0000000000        0.0000000000
Si            2.2542086906        1.3574999941        1.3574999941



     Writing output data file ./out/aiida.save/
     NEW-OLD atomic charge density approx. for the potential

     Writing output data file ./out/aiida.save/

     init_run     :      0.22s CPU      0.25s WALL (       1 calls)
     electrons    :      1.27s CPU      1.58s WALL (       1 calls)
     update_pot   :      0.04s CPU      0.04s WALL (       1 calls)
     forces       :      0.16s CPU      0.18s WALL (       1 calls)

     Called by init_run:
     wfcinit      :      0.01s CPU      0.01s WALL (       1 calls)
     wfcinit:atom :      0.00s CPU      0.00s WALL (       5 calls)
     wfcinit:wfcr :      0.01s CPU      0.01s WALL (       5 calls)
     potinit      :      0.02s CPU      0.02s WALL (       1 calls)
     hinit0       :      0.17s CPU      0.18s WALL (       1 calls)

     Called by electrons:
     c_bands      :      0.24s CPU      0.28s WALL (      12 calls)
     sum_band     :      0.41s CPU      0.53s WALL (      12 calls)
     v_of_rho     :      0.22s CPU      0.27s WALL (      14 calls)
     v_h          :      0.01s CPU      0.01s WALL (      14 calls)
     v_xc         :      0.23s CPU      0.29s WALL (      15 calls)
     newd         :      0.46s CPU      0.60s WALL (      14 calls)
     mix_rho      :      0.02s CPU      0.03s WALL (      12 calls)

     Called by c_bands:
     init_us_2    :      0.02s CPU      0.02s WALL (     130 calls)
     cegterg      :      0.20s CPU      0.23s WALL (      60 calls)

     Called by sum_band:
     sum_band:wei :      0.00s CPU      0.00s WALL (      12 calls)
     sum_band:loo :      0.04s CPU      0.04s WALL (      12 calls)
     sum_band:buf :      0.00s CPU      0.00s WALL (      60 calls)
     sum_band:ini :      0.01s CPU      0.01s WALL (      60 calls)
     sum_band:cal :      0.01s CPU      0.01s WALL (      60 calls)
     sum_band:bec :      0.00s CPU      0.00s WALL (      60 calls)
     addusdens    :      0.36s CPU      0.47s WALL (      12 calls)
     addusd:skk   :      0.00s CPU      0.00s WALL (      12 calls)
     addusd:dgemm :      0.12s CPU      0.20s WALL (      12 calls)
     addusd:qvan2 :      0.18s CPU      0.19s WALL (      12 calls)

     Called by *egterg:
     cdiaghg      :      0.01s CPU      0.01s WALL (     222 calls)
     cegterg:over :      0.01s CPU      0.01s WALL (     162 calls)
     cegterg:upda :      0.00s CPU      0.00s WALL (     162 calls)
     cegterg:last :      0.01s CPU      0.01s WALL (     124 calls)
     h_psi        :      0.16s CPU      0.18s WALL (     227 calls)
     s_psi        :      0.02s CPU      0.03s WALL (     227 calls)
     g_psi        :      0.00s CPU      0.00s WALL (     162 calls)

     Called by h_psi:
     h_psi:calbec :      0.02s CPU      0.03s WALL (     227 calls)
     vloc_psi     :      0.11s CPU      0.12s WALL (     227 calls)
     add_vuspsi   :      0.02s CPU      0.03s WALL (     227 calls)

     General routines
     calbec       :      0.04s CPU      0.04s WALL (     307 calls)
     fft          :      0.13s CPU      0.15s WALL (     192 calls)
     ffts         :      0.00s CPU      0.00s WALL (      26 calls)
     fftw         :      0.11s CPU      0.12s WALL (    1682 calls)
     interpolate  :      0.01s CPU      0.02s WALL (      14 calls)
     davcio       :      0.00s CPU      0.00s WALL (       5 calls)

     Parallel routines

     PWSCF        :      2.02s CPU      2.43s WALL


   This run was terminated on:  13:11: 4  10Feb2023            

=------------------------------------------------------------------------------=
   JOB DONE.
=------------------------------------------------------------------------------=
