<UPF version="2.0.1"><PP_HEADER
element="Si"
z_valence="4.0"
/></UPF>
