
     Program PROJWFC v.7.2 starts on  6Oct2025 at  0:32:47 

     This program is part of the open-source Quantum ESPRESSO suite
     for quantum simulation of materials; please cite
         "P. Giannozzi et al., J. Phys.:Condens. Matter 21 395502 (2009);
         "P. Giannozzi et al., J. Phys.:Condens. Matter 29 465901 (2017);
         "P. Giannozzi et al., J. Chem. Phys. 152 154105 (2020);
          URL http://www.quantum-espresso.org", 
     in publications or presentations arising from this work. More details at
     http://www.quantum-espresso.org/quote

     Parallel version (MPI), running on     1 processors

     MPI processes distributed on     1 nodes
     277196 MiB available memory on the printing compute node when the environment starts
 

     Reading xml data from directory:

     ./out/aiida.save/
     file C.pbe-n-kjpaw_psl.1.0.0.UPF: wavefunction(s)  2S 2P renormalized

     IMPORTANT: XC functional enforced from input :
     Exchange-correlation= PBE
                           (   1   4   3   4   0   0   0)
     Any further DFT definition will be discarded
     Please, verify this is what you really want

 
     G-vector sticks info
     --------------------
     sticks:   dense  smooth     PW     G-vecs:    dense   smooth      PW
     Sum         547     265     85                61509    21649    3993
 
     Using Slab Decomposition
 
 ----2D----2D----2D----2D----2D----2D----2D----2D----2D----2D----2D----2D
  The code is running with the 2D cutoff
  Please refer to:
  Sohier, T., Calandra, M., & Mauri, F. (2017), 
  Density functional perturbation theory for gated two-dimensional heterostructu
 res:
  Theoretical developments and application to flexural phonons in graphene.
  Physical Review B, 96(7), 75448. https://doi.org/10.1103/PhysRevB.96.075448
 ----2D----2D----2D----2D----2D----2D----2D----2D----2D----2D----2D----2D

     Check: negative core charge=   -0.000005

     negative rho (up, down):  2.162E-04 0.000E+00

     Gaussian broadening (read from file): ngauss,degauss= -99    0.002500


     Calling projwave .... 
     Subspace diagonalization in iterative solution of the eigenvalue problem:
     a serial algorithm will be used

 
  Problem Sizes 
  natomwfc =            8
  nbnd     =           12
  nkstot   =           40
  npwx     =         2769
  nkb      =           16
 

     Atomic states used for projection
     (read from pseudopotential files):

     state #   1: atom   1 (C  ), wfc  1 (l=0 m= 1)
     state #   2: atom   1 (C  ), wfc  2 (l=1 m= 1)
     state #   3: atom   1 (C  ), wfc  2 (l=1 m= 2)
     state #   4: atom   1 (C  ), wfc  2 (l=1 m= 3)
     state #   5: atom   2 (C  ), wfc  1 (l=0 m= 1)
     state #   6: atom   2 (C  ), wfc  2 (l=1 m= 1)
     state #   7: atom   2 (C  ), wfc  2 (l=1 m= 2)
     state #   8: atom   2 (C  ), wfc  2 (l=1 m= 3)

 k =   0.5000000000  0.2886751346  0.0000000000
==== e(   1) =   -18.52878 eV ==== 
     psi = 0.315*[#   1]+0.315*[#   5]+0.136*[#   3]+0.136*[#   7]+0.045*[#   4]
          +0.045*[#   8]
    |psi|^2 = 0.993
==== e(   2) =   -17.48829 eV ==== 
     psi = 0.286*[#   3]+0.286*[#   7]+0.108*[#   1]+0.108*[#   5]+0.095*[#   4]
          +0.095*[#   8]
    |psi|^2 = 0.979
==== e(   3) =   -10.67459 eV ==== 
     psi = 0.373*[#   4]+0.373*[#   8]+0.124*[#   3]+0.124*[#   7]
    |psi|^2 = 0.996
==== e(   4) =    -6.60189 eV ==== 
     psi = 0.499*[#   2]+0.499*[#   6]
    |psi|^2 = 0.998
==== e(   5) =    -2.56142 eV ==== 
     psi = 0.474*[#   2]+0.474*[#   6]
    |psi|^2 = 0.949
==== e(   6) =     3.13905 eV ==== 
     psi = 0.341*[#   1]+0.341*[#   5]+0.078*[#   3]+0.078*[#   7]+0.026*[#   4]
          +0.026*[#   8]
    |psi|^2 = 0.891
==== e(   7) =     6.83582 eV ==== 
     psi = 0.004*[#   1]+0.004*[#   5]
    |psi|^2 = 0.009
==== e(   8) =     6.98324 eV ==== 
     psi = 0.004*[#   3]+0.004*[#   7]+0.001*[#   4]+0.001*[#   8]
    |psi|^2 = 0.010
==== e(   9) =     7.66408 eV ==== 
     psi = 0.007*[#   2]+0.007*[#   6]
    |psi|^2 = 0.014
==== e(  10) =     7.87104 eV ==== 
 
    |psi|^2 = 0.000
==== e(  11) =     9.35922 eV ==== 
     psi = 0.004*[#   1]+0.004*[#   5]+0.002*[#   3]+0.002*[#   7]
    |psi|^2 = 0.012
==== e(  12) =     9.40603 eV ==== 
 
    |psi|^2 = 0.003

 k =   0.4642857143  0.2680554821  0.0000000000
==== e(   1) =   -18.92921 eV ==== 
     psi = 0.281*[#   1]+0.281*[#   5]+0.160*[#   3]+0.160*[#   7]+0.053*[#   4]
          +0.053*[#   8]
    |psi|^2 = 0.989
==== e(   2) =   -17.04301 eV ==== 
     psi = 0.262*[#   3]+0.262*[#   7]+0.142*[#   1]+0.142*[#   5]+0.087*[#   4]
          +0.087*[#   8]
    |psi|^2 = 0.983
==== e(   3) =   -10.64461 eV ==== 
     psi = 0.373*[#   4]+0.373*[#   8]+0.124*[#   3]+0.124*[#   7]
    |psi|^2 = 0.996
==== e(   4) =    -6.79043 eV ==== 
     psi = 0.499*[#   2]+0.499*[#   6]
    |psi|^2 = 0.997
==== e(   5) =    -2.32591 eV ==== 
     psi = 0.474*[#   2]+0.474*[#   6]
    |psi|^2 = 0.948
==== e(   6) =     3.15420 eV ==== 
     psi = 0.339*[#   1]+0.339*[#   5]+0.080*[#   3]+0.080*[#   7]+0.027*[#   4]
          +0.027*[#   8]
    |psi|^2 = 0.890
==== e(   7) =     5.84140 eV ==== 
     psi = 0.003*[#   3]+0.003*[#   7]+0.001*[#   1]+0.001*[#   5]
    |psi|^2 = 0.010
==== e(   8) =     6.69947 eV ==== 
     psi = 0.003*[#   2]+0.003*[#   6]
    |psi|^2 = 0.006
==== e(   9) =     8.02833 eV ==== 
     psi = 0.005*[#   1]+0.005*[#   5]+0.002*[#   3]+0.002*[#   7]
    |psi|^2 = 0.017
==== e(  10) =     8.30091 eV ==== 
     psi = 0.001*[#   3]+0.001*[#   7]
    |psi|^2 = 0.004
==== e(  11) =     8.77496 eV ==== 
     psi = 0.007*[#   2]+0.007*[#   6]
    |psi|^2 = 0.015
==== e(  12) =     9.16893 eV ==== 
 
    |psi|^2 = 0.001

 k =   0.4285714286  0.2474358297  0.0000000000
==== e(   1) =   -19.57290 eV ==== 
     psi = 0.273*[#   1]+0.273*[#   5]+0.165*[#   3]+0.165*[#   7]+0.055*[#   4]
          +0.055*[#   8]
    |psi|^2 = 0.986
==== e(   2) =   -16.26545 eV ==== 
     psi = 0.257*[#   3]+0.257*[#   7]+0.151*[#   1]+0.151*[#   5]+0.086*[#   4]
          +0.086*[#   8]
    |psi|^2 = 0.986
==== e(   3) =   -10.55508 eV ==== 
     psi = 0.373*[#   4]+0.373*[#   8]+0.124*[#   3]+0.124*[#   7]
    |psi|^2 = 0.996
==== e(   4) =    -7.25652 eV ==== 
     psi = 0.498*[#   2]+0.498*[#   6]
    |psi|^2 = 0.996
==== e(   5) =    -1.72037 eV ==== 
     psi = 0.473*[#   2]+0.473*[#   6]
    |psi|^2 = 0.947
==== e(   6) =     3.19828 eV ==== 
     psi = 0.330*[#   1]+0.330*[#   5]+0.083*[#   3]+0.083*[#   7]+0.028*[#   4]
          +0.028*[#   8]
    |psi|^2 = 0.882
==== e(   7) =     4.84590 eV ==== 
     psi = 0.006*[#   3]+0.006*[#   7]+0.002*[#   4]+0.002*[#   8]+0.002*[#   1]
          +0.002*[#   5]
    |psi|^2 = 0.019
==== e(   8) =     5.69928 eV ==== 
     psi = 0.003*[#   2]+0.003*[#   6]
    |psi|^2 = 0.005
==== e(   9) =     7.27776 eV ==== 
     psi = 0.001*[#   3]+0.001*[#   7]
    |psi|^2 = 0.004
==== e(  10) =     8.07613 eV ==== 
     psi = 0.003*[#   2]+0.003*[#   6]
    |psi|^2 = 0.007
==== e(  11) =     9.18782 eV ==== 
     psi = 0.012*[#   1]+0.012*[#   5]+0.006*[#   3]+0.006*[#   7]+0.002*[#   4]
          +0.002*[#   8]
    |psi|^2 = 0.039
==== e(  12) =    10.04796 eV ==== 
     psi = 0.006*[#   2]+0.006*[#   6]
    |psi|^2 = 0.012

 k =   0.3928571429  0.2268161772  0.0000000000
==== e(   1) =   -20.21166 eV ==== 
     psi = 0.280*[#   1]+0.280*[#   5]+0.159*[#   3]+0.159*[#   7]+0.053*[#   4]
          +0.053*[#   8]
    |psi|^2 = 0.984
==== e(   2) =   -15.40623 eV ==== 
     psi = 0.261*[#   3]+0.261*[#   7]+0.146*[#   1]+0.146*[#   5]+0.087*[#   4]
          +0.087*[#   8]
    |psi|^2 = 0.988
==== e(   3) =   -10.40743 eV ==== 
     psi = 0.374*[#   4]+0.374*[#   8]+0.125*[#   3]+0.125*[#   7]
    |psi|^2 = 0.996
==== e(   4) =    -7.84481 eV ==== 
     psi = 0.498*[#   2]+0.498*[#   6]
    |psi|^2 = 0.995
==== e(   5) =    -0.90483 eV ==== 
     psi = 0.472*[#   2]+0.472*[#   6]
    |psi|^2 = 0.944
==== e(   6) =     3.26172 eV ==== 
     psi = 0.308*[#   1]+0.308*[#   5]+0.084*[#   3]+0.084*[#   7]+0.028*[#   4]
          +0.028*[#   8]
    |psi|^2 = 0.840
==== e(   7) =     3.93214 eV ==== 
     psi = 0.016*[#   3]+0.016*[#   7]+0.011*[#   1]+0.011*[#   5]+0.005*[#   4]
          +0.005*[#   8]
    |psi|^2 = 0.064
==== e(   8) =     4.76894 eV ==== 
     psi = 0.003*[#   2]+0.003*[#   6]
    |psi|^2 = 0.006
==== e(   9) =     6.33993 eV ==== 
     psi = 0.002*[#   3]+0.002*[#   7]
    |psi|^2 = 0.006
==== e(  10) =     7.19003 eV ==== 
     psi = 0.003*[#   2]+0.003*[#   6]
    |psi|^2 = 0.006
==== e(  11) =     9.82920 eV ==== 
     psi = 0.002*[#   1]+0.002*[#   5]+0.001*[#   3]+0.001*[#   7]
    |psi|^2 = 0.008
==== e(  12) =    10.31160 eV ==== 
     psi = 0.027*[#   1]+0.027*[#   5]+0.015*[#   3]+0.015*[#   7]+0.005*[#   4]
          +0.005*[#   8]
    |psi|^2 = 0.094

 k =   0.3571428571  0.2061965247  0.0000000000
==== e(   1) =   -20.81100 eV ==== 
     psi = 0.292*[#   1]+0.292*[#   5]+0.149*[#   3]+0.149*[#   7]+0.050*[#   4]
          +0.050*[#   8]
    |psi|^2 = 0.982
==== e(   2) =   -14.50378 eV ==== 
     psi = 0.269*[#   3]+0.269*[#   7]+0.136*[#   1]+0.136*[#   5]+0.090*[#   4]
          +0.090*[#   8]
    |psi|^2 = 0.990
==== e(   3) =   -10.20404 eV ==== 
     psi = 0.374*[#   4]+0.374*[#   8]+0.125*[#   3]+0.125*[#   7]
    |psi|^2 = 0.996
==== e(   4) =    -8.46189 eV ==== 
     psi = 0.497*[#   2]+0.497*[#   6]
    |psi|^2 = 0.993
==== e(   5) =     0.01933 eV ==== 
     psi = 0.470*[#   2]+0.470*[#   6]
    |psi|^2 = 0.941
==== e(   6) =     3.02282 eV ==== 
     psi = 0.026*[#   1]+0.026*[#   5]
    |psi|^2 = 0.052
==== e(   7) =     3.42230 eV ==== 
     psi = 0.275*[#   1]+0.275*[#   5]+0.114*[#   3]+0.114*[#   7]+0.038*[#   4]
          +0.038*[#   8]
    |psi|^2 = 0.853
==== e(   8) =     3.91500 eV ==== 
     psi = 0.004*[#   2]+0.004*[#   6]
    |psi|^2 = 0.009
==== e(   9) =     5.48157 eV ==== 
     psi = 0.004*[#   3]+0.004*[#   7]+0.001*[#   4]+0.001*[#   8]+0.001*[#   1]
          +0.001*[#   5]
    |psi|^2 = 0.012
==== e(  10) =     6.36234 eV ==== 
     psi = 0.003*[#   2]+0.003*[#   6]
    |psi|^2 = 0.006
==== e(  11) =     8.99417 eV ==== 
     psi = 0.001*[#   3]+0.001*[#   7]+0.001*[#   1]+0.001*[#   5]
    |psi|^2 = 0.005
==== e(  12) =    10.33324 eV ==== 
     psi = 0.005*[#   2]+0.005*[#   6]
    |psi|^2 = 0.010

 k =   0.3214285714  0.1855768722  0.0000000000
==== e(   1) =   -21.36158 eV ==== 
     psi = 0.308*[#   1]+0.308*[#   5]+0.137*[#   3]+0.137*[#   7]+0.046*[#   4]
          +0.046*[#   8]
    |psi|^2 = 0.982
==== e(   2) =   -13.57366 eV ==== 
     psi = 0.279*[#   3]+0.279*[#   7]+0.124*[#   1]+0.124*[#   5]+0.093*[#   4]
          +0.093*[#   8]
    |psi|^2 = 0.991
==== e(   3) =    -9.94868 eV ==== 
     psi = 0.374*[#   4]+0.374*[#   8]+0.125*[#   3]+0.125*[#   7]
    |psi|^2 = 0.997
==== e(   4) =    -9.06231 eV ==== 
     psi = 0.495*[#   2]+0.495*[#   6]
    |psi|^2 = 0.990
==== e(   5) =     0.99309 eV ==== 
     psi = 0.467*[#   2]+0.467*[#   6]
    |psi|^2 = 0.933
==== e(   6) =     2.27739 eV ==== 
     psi = 0.005*[#   3]+0.005*[#   7]+0.002*[#   4]+0.002*[#   8]+0.001*[#   1]
          +0.001*[#   5]
    |psi|^2 = 0.017
==== e(   7) =     3.14301 eV ==== 
     psi = 0.009*[#   2]+0.009*[#   6]
    |psi|^2 = 0.017
==== e(   8) =     3.51575 eV ==== 
     psi = 0.275*[#   1]+0.275*[#   5]+0.124*[#   3]+0.124*[#   7]+0.041*[#   4]
          +0.041*[#   8]
    |psi|^2 = 0.880
==== e(   9) =     4.70638 eV ==== 
     psi = 0.007*[#   3]+0.007*[#   7]+0.003*[#   1]+0.003*[#   5]+0.002*[#   4]
          +0.002*[#   8]
    |psi|^2 = 0.026
==== e(  10) =     5.60499 eV ==== 
     psi = 0.004*[#   2]+0.004*[#   6]
    |psi|^2 = 0.008
==== e(  11) =     8.23080 eV ==== 
     psi = 0.002*[#   3]+0.002*[#   7]
    |psi|^2 = 0.006
==== e(  12) =     9.69928 eV ==== 
     psi = 0.003*[#   2]+0.003*[#   6]
    |psi|^2 = 0.007

 k =   0.2857142857  0.1649572198  0.0000000000
==== e(   1) =   -21.85927 eV ==== 
     psi = 0.326*[#   1]+0.326*[#   5]+0.124*[#   3]+0.124*[#   7]+0.041*[#   4]
          +0.041*[#   8]
    |psi|^2 = 0.981
==== e(   2) =   -12.62861 eV ==== 
     psi = 0.290*[#   3]+0.290*[#   7]+0.109*[#   1]+0.109*[#   5]+0.097*[#   4]
          +0.097*[#   8]
    |psi|^2 = 0.991
==== e(   3) =    -9.64673 eV ==== 
     psi = 0.374*[#   4]+0.374*[#   8]+0.125*[#   3]+0.125*[#   7]
    |psi|^2 = 0.997
==== e(   4) =    -9.62328 eV ==== 
     psi = 0.492*[#   2]+0.492*[#   6]
    |psi|^2 = 0.985
==== e(   5) =     1.58920 eV ==== 
     psi = 0.010*[#   3]+0.010*[#   7]+0.003*[#   4]+0.003*[#   8]
    |psi|^2 = 0.026
==== e(   6) =     1.94197 eV ==== 
     psi = 0.410*[#   2]+0.410*[#   6]
    |psi|^2 = 0.820
==== e(   7) =     2.49193 eV ==== 
     psi = 0.066*[#   2]+0.066*[#   6]
    |psi|^2 = 0.133
==== e(   8) =     3.62500 eV ==== 
     psi = 0.227*[#   1]+0.227*[#   5]+0.120*[#   3]+0.120*[#   7]+0.040*[#   4]
          +0.040*[#   8]
    |psi|^2 = 0.772
==== e(   9) =     4.03333 eV ==== 
     psi = 0.030*[#   3]+0.030*[#   7]+0.025*[#   1]+0.025*[#   5]+0.010*[#   4]
          +0.010*[#   8]
    |psi|^2 = 0.130
==== e(  10) =     4.92332 eV ==== 
     psi = 0.006*[#   2]+0.006*[#   6]
    |psi|^2 = 0.012
==== e(  11) =     7.54471 eV ==== 
     psi = 0.003*[#   3]+0.003*[#   7]
    |psi|^2 = 0.008
==== e(  12) =     9.08415 eV ==== 
     psi = 0.003*[#   2]+0.003*[#   6]
    |psi|^2 = 0.006

 k =   0.2500000000  0.1443375673  0.0000000000
==== e(   1) =   -22.30176 eV ==== 
     psi = 0.347*[#   1]+0.347*[#   5]+0.108*[#   3]+0.108*[#   7]+0.036*[#   4]
          +0.036*[#   8]
    |psi|^2 = 0.981
==== e(   2) =   -11.68297 eV ==== 
     psi = 0.302*[#   3]+0.302*[#   7]+0.101*[#   4]+0.101*[#   8]+0.094*[#   1]
          +0.094*[#   5]
    |psi|^2 = 0.992
==== e(   3) =   -10.13238 eV ==== 
     psi = 0.489*[#   2]+0.489*[#   6]
    |psi|^2 = 0.979
==== e(   4) =    -9.30581 eV ==== 
     psi = 0.374*[#   4]+0.374*[#   8]+0.125*[#   3]+0.125*[#   7]
    |psi|^2 = 0.997
==== e(   5) =     0.97867 eV ==== 
     psi = 0.013*[#   3]+0.013*[#   7]+0.004*[#   4]+0.004*[#   8]
    |psi|^2 = 0.034
==== e(   6) =     1.78717 eV ==== 
     psi = 0.011*[#   2]+0.011*[#   6]
    |psi|^2 = 0.021
==== e(   7) =     3.00851 eV ==== 
     psi = 0.464*[#   2]+0.464*[#   6]
    |psi|^2 = 0.927
==== e(   8) =     3.34647 eV ==== 
     psi = 0.012*[#   1]+0.012*[#   5]+0.002*[#   3]+0.002*[#   7]
    |psi|^2 = 0.029
==== e(   9) =     3.83729 eV ==== 
     psi = 0.207*[#   1]+0.207*[#   5]+0.170*[#   3]+0.170*[#   7]+0.057*[#   4]
          +0.057*[#   8]
    |psi|^2 = 0.868
==== e(  10) =     4.32340 eV ==== 
     psi = 0.012*[#   2]+0.012*[#   6]
    |psi|^2 = 0.024
==== e(  11) =     6.93760 eV ==== 
     psi = 0.004*[#   3]+0.004*[#   7]+0.001*[#   4]+0.001*[#   8]
    |psi|^2 = 0.011
==== e(  12) =     8.52175 eV ==== 
     psi = 0.003*[#   2]+0.003*[#   6]
    |psi|^2 = 0.005

 k =   0.2142857143  0.1237179148  0.0000000000
==== e(   1) =   -22.68757 eV ==== 
     psi = 0.370*[#   1]+0.370*[#   5]+0.091*[#   3]+0.091*[#   7]+0.030*[#   4]
          +0.030*[#   8]
    |psi|^2 = 0.982
==== e(   2) =   -10.75461 eV ==== 
     psi = 0.314*[#   3]+0.314*[#   7]+0.105*[#   4]+0.105*[#   8]+0.078*[#   1]
          +0.078*[#   5]
    |psi|^2 = 0.993
==== e(   3) =   -10.58223 eV ==== 
     psi = 0.486*[#   2]+0.486*[#   6]
    |psi|^2 = 0.972
==== e(   4) =    -8.93653 eV ==== 
     psi = 0.374*[#   4]+0.374*[#   8]+0.125*[#   3]+0.125*[#   7]
    |psi|^2 = 0.997
==== e(   5) =     0.44820 eV ==== 
     psi = 0.014*[#   3]+0.014*[#   7]+0.005*[#   4]+0.005*[#   8]
    |psi|^2 = 0.038
==== e(   6) =     1.26450 eV ==== 
     psi = 0.007*[#   2]+0.007*[#   6]
    |psi|^2 = 0.014
==== e(   7) =     2.82879 eV ==== 
     psi = 0.002*[#   1]+0.002*[#   5]
    |psi|^2 = 0.005
==== e(   8) =     3.71775 eV ==== 
     psi = 0.094*[#   2]+0.094*[#   6]
    |psi|^2 = 0.188
==== e(   9) =     3.95510 eV ==== 
     psi = 0.198*[#   3]+0.198*[#   7]+0.180*[#   1]+0.180*[#   5]+0.066*[#   4]
          +0.066*[#   8]
    |psi|^2 = 0.889
==== e(  10) =     4.01893 eV ==== 
     psi = 0.390*[#   2]+0.390*[#   6]
    |psi|^2 = 0.781
==== e(  11) =     6.41032 eV ==== 
     psi = 0.005*[#   3]+0.005*[#   7]+0.002*[#   4]+0.002*[#   8]
    |psi|^2 = 0.015
==== e(  12) =     8.01078 eV ==== 
     psi = 0.349*[#   4]+0.349*[#   8]+0.116*[#   3]+0.116*[#   7]
    |psi|^2 = 0.930

 k =   0.1785714286  0.1030982624  0.0000000000
==== e(   1) =   -23.01554 eV ==== 
     psi = 0.396*[#   1]+0.396*[#   5]+0.072*[#   3]+0.072*[#   7]+0.024*[#   4]
          +0.024*[#   8]
    |psi|^2 = 0.982
==== e(   2) =   -10.96816 eV ==== 
     psi = 0.483*[#   2]+0.483*[#   6]
    |psi|^2 = 0.965
==== e(   3) =    -9.86653 eV ==== 
     psi = 0.328*[#   3]+0.328*[#   7]+0.109*[#   4]+0.109*[#   8]+0.060*[#   1]
          +0.060*[#   5]
    |psi|^2 = 0.994
==== e(   4) =    -8.55351 eV ==== 
     psi = 0.374*[#   4]+0.374*[#   8]+0.125*[#   3]+0.125*[#   7]
    |psi|^2 = 0.997
==== e(   5) =    -0.00133 eV ==== 
     psi = 0.015*[#   3]+0.015*[#   7]+0.005*[#   4]+0.005*[#   8]
    |psi|^2 = 0.039
==== e(   6) =     0.81370 eV ==== 
     psi = 0.008*[#   2]+0.008*[#   6]
    |psi|^2 = 0.016
==== e(   7) =     2.37956 eV ==== 
     psi = 0.002*[#   3]+0.002*[#   7]
    |psi|^2 = 0.005
==== e(   8) =     3.32591 eV ==== 
     psi = 0.006*[#   2]+0.006*[#   6]
    |psi|^2 = 0.013
==== e(   9) =     4.06289 eV ==== 
     psi = 0.228*[#   3]+0.228*[#   7]+0.140*[#   1]+0.140*[#   5]+0.076*[#   4]
          +0.076*[#   8]
    |psi|^2 = 0.887
==== e(  10) =     4.83728 eV ==== 
     psi = 0.483*[#   2]+0.483*[#   6]
    |psi|^2 = 0.966
==== e(  11) =     5.96317 eV ==== 
     psi = 0.006*[#   3]+0.006*[#   7]+0.002*[#   4]+0.002*[#   8]
    |psi|^2 = 0.018
==== e(  12) =     6.94727 eV ==== 
     psi = 0.351*[#   4]+0.351*[#   8]+0.117*[#   3]+0.117*[#   7]
    |psi|^2 = 0.935

 k =   0.1428571429  0.0824786099  0.0000000000
==== e(   1) =   -23.28484 eV ==== 
     psi = 0.422*[#   1]+0.422*[#   5]+0.052*[#   3]+0.052*[#   7]+0.017*[#   4]
          +0.017*[#   8]
    |psi|^2 = 0.983
==== e(   2) =   -11.28709 eV ==== 
     psi = 0.479*[#   2]+0.479*[#   6]
    |psi|^2 = 0.959
==== e(   3) =    -9.04854 eV ==== 
     psi = 0.341*[#   3]+0.341*[#   7]+0.114*[#   4]+0.114*[#   8]+0.043*[#   1]
          +0.043*[#   5]
    |psi|^2 = 0.995
==== e(   4) =    -8.17647 eV ==== 
     psi = 0.374*[#   4]+0.374*[#   8]+0.125*[#   3]+0.125*[#   7]
    |psi|^2 = 0.997
==== e(   5) =    -0.36945 eV ==== 
     psi = 0.013*[#   3]+0.013*[#   7]+0.004*[#   4]+0.004*[#   8]
    |psi|^2 = 0.035
==== e(   6) =     0.44310 eV ==== 
     psi = 0.009*[#   2]+0.009*[#   6]
    |psi|^2 = 0.019
==== e(   7) =     2.01026 eV ==== 
     psi = 0.002*[#   3]+0.002*[#   7]
    |psi|^2 = 0.006
==== e(   8) =     2.96336 eV ==== 
     psi = 0.007*[#   2]+0.007*[#   6]
    |psi|^2 = 0.013
==== e(   9) =     4.13296 eV ==== 
     psi = 0.261*[#   3]+0.261*[#   7]+0.097*[#   1]+0.097*[#   5]+0.087*[#   4]
          +0.087*[#   8]
    |psi|^2 = 0.890
==== e(  10) =     5.59579 eV ==== 
     psi = 0.007*[#   3]+0.007*[#   7]+0.002*[#   4]+0.002*[#   8]
    |psi|^2 = 0.021
==== e(  11) =     5.61159 eV ==== 
     psi = 0.488*[#   2]+0.488*[#   6]
    |psi|^2 = 0.975
==== e(  12) =     6.00100 eV ==== 
     psi = 0.353*[#   4]+0.353*[#   8]+0.118*[#   3]+0.118*[#   7]
    |psi|^2 = 0.940

 k =   0.1071428571  0.0618589574  0.0000000000
==== e(   1) =   -23.49485 eV ==== 
     psi = 0.448*[#   1]+0.448*[#   5]+0.033*[#   3]+0.033*[#   7]+0.011*[#   4]
          +0.011*[#   8]
    |psi|^2 = 0.983
==== e(   2) =   -11.53692 eV ==== 
     psi = 0.477*[#   2]+0.477*[#   6]
    |psi|^2 = 0.954
==== e(   3) =    -8.33819 eV ==== 
     psi = 0.354*[#   3]+0.354*[#   7]+0.118*[#   4]+0.118*[#   8]+0.026*[#   1]
          +0.026*[#   5]
    |psi|^2 = 0.997
==== e(   4) =    -7.83110 eV ==== 
     psi = 0.374*[#   4]+0.374*[#   8]+0.125*[#   3]+0.125*[#   7]
    |psi|^2 = 0.997
==== e(   5) =    -0.65589 eV ==== 
     psi = 0.010*[#   3]+0.010*[#   7]+0.003*[#   4]+0.003*[#   8]
    |psi|^2 = 0.027
==== e(   6) =     0.15424 eV ==== 
     psi = 0.011*[#   2]+0.011*[#   6]
    |psi|^2 = 0.021
==== e(   7) =     1.72261 eV ==== 
     psi = 0.002*[#   3]+0.002*[#   7]
    |psi|^2 = 0.005
==== e(   8) =     2.67900 eV ==== 
     psi = 0.007*[#   2]+0.007*[#   6]
    |psi|^2 = 0.015
==== e(   9) =     4.15452 eV ==== 
     psi = 0.296*[#   3]+0.296*[#   7]+0.099*[#   4]+0.099*[#   8]+0.057*[#   1]
          +0.057*[#   5]
    |psi|^2 = 0.903
==== e(  10) =     5.20579 eV ==== 
     psi = 0.354*[#   4]+0.354*[#   8]+0.118*[#   3]+0.118*[#   7]
    |psi|^2 = 0.945
==== e(  11) =     5.30753 eV ==== 
     psi = 0.007*[#   3]+0.007*[#   7]+0.002*[#   4]+0.002*[#   8]
    |psi|^2 = 0.020
==== e(  12) =     6.26192 eV ==== 
     psi = 0.491*[#   2]+0.491*[#   6]
    |psi|^2 = 0.982

 k =   0.0714285714  0.0412393049  0.0000000000
==== e(   1) =   -23.64517 eV ==== 
     psi = 0.471*[#   1]+0.471*[#   5]+0.016*[#   3]+0.016*[#   7]+0.005*[#   4]
          +0.005*[#   8]
    |psi|^2 = 0.984
==== e(   2) =   -11.71627 eV ==== 
     psi = 0.475*[#   2]+0.475*[#   6]
    |psi|^2 = 0.949
==== e(   3) =    -7.77997 eV ==== 
     psi = 0.365*[#   3]+0.365*[#   7]+0.122*[#   4]+0.122*[#   8]+0.013*[#   1]
          +0.013*[#   5]
    |psi|^2 = 0.997
==== e(   4) =    -7.54844 eV ==== 
     psi = 0.374*[#   4]+0.374*[#   8]+0.125*[#   3]+0.125*[#   7]
    |psi|^2 = 0.997
==== e(   5) =    -0.86052 eV ==== 
     psi = 0.005*[#   3]+0.005*[#   7]+0.002*[#   1]+0.002*[#   4]+0.002*[#   5]
          +0.002*[#   8]
    |psi|^2 = 0.017
==== e(   6) =    -0.05233 eV ==== 
     psi = 0.012*[#   2]+0.012*[#   6]
    |psi|^2 = 0.023
==== e(   7) =     1.51707 eV ==== 
     psi = 0.001*[#   1]+0.001*[#   5]
    |psi|^2 = 0.004
==== e(   8) =     2.47528 eV ==== 
     psi = 0.008*[#   2]+0.008*[#   6]
    |psi|^2 = 0.016
==== e(   9) =     4.13464 eV ==== 
     psi = 0.327*[#   3]+0.327*[#   7]+0.109*[#   4]+0.109*[#   8]+0.026*[#   1]
          +0.026*[#   5]
    |psi|^2 = 0.923
==== e(  10) =     4.59843 eV ==== 
     psi = 0.356*[#   4]+0.356*[#   8]+0.119*[#   3]+0.119*[#   7]
    |psi|^2 = 0.948
==== e(  11) =     5.09861 eV ==== 
     psi = 0.005*[#   3]+0.005*[#   7]+0.002*[#   4]+0.002*[#   8]
    |psi|^2 = 0.014
==== e(  12) =     6.75325 eV ==== 
     psi = 0.434*[#   2]+0.434*[#   6]
    |psi|^2 = 0.869

 k =   0.0357142857  0.0206196525  0.0000000000
==== e(   1) =   -23.73548 eV ==== 
     psi = 0.486*[#   1]+0.486*[#   5]+0.004*[#   3]+0.004*[#   7]+0.001*[#   4]
          +0.001*[#   8]
    |psi|^2 = 0.984
==== e(   2) =   -11.82422 eV ==== 
     psi = 0.473*[#   2]+0.473*[#   6]
    |psi|^2 = 0.947
==== e(   3) =    -7.42004 eV ==== 
     psi = 0.372*[#   3]+0.372*[#   7]+0.124*[#   4]+0.124*[#   8]+0.003*[#   1]
          +0.003*[#   5]
    |psi|^2 = 0.997
==== e(   4) =    -7.36113 eV ==== 
     psi = 0.374*[#   4]+0.374*[#   8]+0.125*[#   3]+0.125*[#   7]
    |psi|^2 = 0.997
==== e(   5) =    -0.98328 eV ==== 
     psi = 0.003*[#   1]+0.003*[#   5]+0.001*[#   3]+0.001*[#   7]
    |psi|^2 = 0.010
==== e(   6) =    -0.17636 eV ==== 
     psi = 0.012*[#   2]+0.012*[#   6]
    |psi|^2 = 0.024
==== e(   7) =     1.39377 eV ==== 
     psi = 0.001*[#   1]+0.001*[#   5]
    |psi|^2 = 0.003
==== e(   8) =     2.35287 eV ==== 
     psi = 0.008*[#   2]+0.008*[#   6]
    |psi|^2 = 0.017
==== e(   9) =     4.10004 eV ==== 
     psi = 0.349*[#   3]+0.349*[#   7]+0.116*[#   4]+0.116*[#   8]+0.006*[#   1]
          +0.006*[#   5]
    |psi|^2 = 0.943
==== e(  10) =     4.21494 eV ==== 
     psi = 0.356*[#   4]+0.356*[#   8]+0.119*[#   3]+0.119*[#   7]
    |psi|^2 = 0.950
==== e(  11) =     4.97130 eV ==== 
     psi = 0.002*[#   3]+0.002*[#   7]
    |psi|^2 = 0.006
==== e(  12) =     6.65503 eV ==== 
     psi = 0.004*[#   2]+0.004*[#   6]
    |psi|^2 = 0.007

 k =   0.0000000000  0.0000000000  0.0000000000
==== e(   1) =   -23.76561 eV ==== 
     psi = 0.492*[#   1]+0.492*[#   5]
    |psi|^2 = 0.984
==== e(   2) =   -11.86026 eV ==== 
     psi = 0.473*[#   2]+0.473*[#   6]
    |psi|^2 = 0.946
==== e(   3) =    -7.29531 eV ==== 
     psi = 0.417*[#   4]+0.417*[#   8]+0.081*[#   3]+0.081*[#   7]
    |psi|^2 = 0.997
==== e(   4) =    -7.29531 eV ==== 
     psi = 0.417*[#   3]+0.417*[#   7]+0.081*[#   4]+0.081*[#   8]
    |psi|^2 = 0.997
==== e(   5) =    -1.02419 eV ==== 
     psi = 0.003*[#   1]+0.003*[#   5]
    |psi|^2 = 0.007
==== e(   6) =    -0.21771 eV ==== 
     psi = 0.012*[#   2]+0.012*[#   6]
    |psi|^2 = 0.025
==== e(   7) =     1.35268 eV ==== 
     psi = 0.001*[#   1]+0.001*[#   5]
    |psi|^2 = 0.003
==== e(   8) =     2.31205 eV ==== 
     psi = 0.009*[#   2]+0.009*[#   6]
    |psi|^2 = 0.017
==== e(   9) =     4.08344 eV ==== 
     psi = 0.398*[#   3]+0.398*[#   7]+0.077*[#   4]+0.077*[#   8]
    |psi|^2 = 0.951
==== e(  10) =     4.08344 eV ==== 
     psi = 0.398*[#   4]+0.398*[#   8]+0.077*[#   3]+0.077*[#   7]
    |psi|^2 = 0.951
==== e(  11) =     4.92847 eV ==== 
     psi = 0.001*[#   1]+0.001*[#   5]
    |psi|^2 = 0.002
==== e(  12) =     6.61546 eV ==== 
     psi = 0.004*[#   2]+0.004*[#   6]
    |psi|^2 = 0.007

 k =   0.0208333333  0.0360843918  0.0000000000
==== e(   1) =   -23.73485 eV ==== 
     psi = 0.486*[#   1]+0.486*[#   5]+0.004*[#   4]+0.004*[#   8]+0.001*[#   3]
          +0.001*[#   7]
    |psi|^2 = 0.984
==== e(   2) =   -11.82347 eV ==== 
     psi = 0.473*[#   2]+0.473*[#   6]
    |psi|^2 = 0.947
==== e(   3) =    -7.42198 eV ==== 
     psi = 0.370*[#   4]+0.370*[#   8]+0.126*[#   3]+0.126*[#   7]+0.003*[#   1]
          +0.003*[#   5]
    |psi|^2 = 0.997
==== e(   4) =    -7.36312 eV ==== 
     psi = 0.372*[#   3]+0.372*[#   7]+0.126*[#   4]+0.126*[#   8]
    |psi|^2 = 0.997
==== e(   5) =    -0.98242 eV ==== 
     psi = 0.003*[#   1]+0.003*[#   5]+0.002*[#   4]+0.002*[#   8]
    |psi|^2 = 0.010
==== e(   6) =    -0.17550 eV ==== 
     psi = 0.012*[#   2]+0.012*[#   6]
    |psi|^2 = 0.024
==== e(   7) =     1.39463 eV ==== 
     psi = 0.001*[#   1]+0.001*[#   5]
    |psi|^2 = 0.003
==== e(   8) =     2.35373 eV ==== 
     psi = 0.008*[#   2]+0.008*[#   6]
    |psi|^2 = 0.017
==== e(   9) =     4.10215 eV ==== 
     psi = 0.347*[#   4]+0.347*[#   8]+0.118*[#   3]+0.118*[#   7]+0.006*[#   1]
          +0.006*[#   5]
    |psi|^2 = 0.942
==== e(  10) =     4.21582 eV ==== 
     psi = 0.355*[#   3]+0.355*[#   7]+0.120*[#   4]+0.120*[#   8]
    |psi|^2 = 0.950
==== e(  11) =     4.97220 eV ==== 
     psi = 0.002*[#   4]+0.002*[#   8]
    |psi|^2 = 0.006
==== e(  12) =     6.65585 eV ==== 
     psi = 0.004*[#   2]+0.004*[#   6]
    |psi|^2 = 0.007

 k =   0.0416666667  0.0721687837  0.0000000000
==== e(   1) =   -23.64268 eV ==== 
     psi = 0.470*[#   1]+0.470*[#   5]+0.016*[#   4]+0.016*[#   8]+0.005*[#   3]
          +0.005*[#   7]
    |psi|^2 = 0.984
==== e(   2) =   -11.71328 eV ==== 
     psi = 0.475*[#   2]+0.475*[#   6]
    |psi|^2 = 0.949
==== e(   3) =    -7.78073 eV ==== 
     psi = 0.359*[#   4]+0.359*[#   8]+0.128*[#   3]+0.128*[#   7]+0.012*[#   1]
          +0.012*[#   5]
    |psi|^2 = 0.997
==== e(   4) =    -7.56297 eV ==== 
     psi = 0.367*[#   3]+0.367*[#   7]+0.131*[#   4]+0.131*[#   8]
    |psi|^2 = 0.997
==== e(   5) =    -0.85710 eV ==== 
     psi = 0.005*[#   4]+0.005*[#   8]+0.002*[#   1]+0.002*[#   3]+0.002*[#   5]
          +0.002*[#   7]
    |psi|^2 = 0.018
==== e(   6) =    -0.04889 eV ==== 
     psi = 0.012*[#   2]+0.012*[#   6]
    |psi|^2 = 0.023
==== e(   7) =     1.52051 eV ==== 
 
    |psi|^2 = 0.004
==== e(   8) =     2.47868 eV ==== 
     psi = 0.008*[#   2]+0.008*[#   6]
    |psi|^2 = 0.016
==== e(   9) =     4.16154 eV ==== 
     psi = 0.322*[#   4]+0.322*[#   8]+0.116*[#   3]+0.116*[#   7]+0.023*[#   1]
          +0.023*[#   5]
    |psi|^2 = 0.921
==== e(  10) =     4.58086 eV ==== 
     psi = 0.348*[#   3]+0.348*[#   7]+0.122*[#   4]+0.122*[#   8]+0.004*[#   1]
          +0.004*[#   5]
    |psi|^2 = 0.949
==== e(  11) =     5.10233 eV ==== 
     psi = 0.005*[#   4]+0.005*[#   8]+0.002*[#   3]+0.002*[#   7]
    |psi|^2 = 0.015
==== e(  12) =     6.74780 eV ==== 
     psi = 0.495*[#   2]+0.495*[#   6]
    |psi|^2 = 0.990

 k =   0.0625000000  0.1082531755  0.0000000000
==== e(   1) =   -23.48923 eV ==== 
     psi = 0.447*[#   1]+0.447*[#   5]+0.033*[#   4]+0.033*[#   8]+0.011*[#   3]
          +0.011*[#   7]
    |psi|^2 = 0.983
==== e(   2) =   -11.53020 eV ==== 
     psi = 0.477*[#   2]+0.477*[#   6]
    |psi|^2 = 0.954
==== e(   3) =    -8.31972 eV ==== 
     psi = 0.343*[#   4]+0.343*[#   8]+0.130*[#   3]+0.130*[#   7]+0.025*[#   1]
          +0.025*[#   5]
    |psi|^2 = 0.997
==== e(   4) =    -7.88422 eV ==== 
     psi = 0.360*[#   3]+0.360*[#   7]+0.136*[#   4]+0.136*[#   8]+0.002*[#   1]
          +0.002*[#   5]
    |psi|^2 = 0.996
==== e(   5) =    -0.64818 eV ==== 
     psi = 0.010*[#   4]+0.010*[#   8]+0.003*[#   3]+0.003*[#   7]
    |psi|^2 = 0.027
==== e(   6) =     0.16199 eV ==== 
     psi = 0.011*[#   2]+0.011*[#   6]
    |psi|^2 = 0.021
==== e(   7) =     1.73042 eV ==== 
     psi = 0.002*[#   4]+0.002*[#   8]
    |psi|^2 = 0.006
==== e(   8) =     2.68669 eV ==== 
     psi = 0.007*[#   2]+0.007*[#   6]
    |psi|^2 = 0.015
==== e(   9) =     4.27014 eV ==== 
     psi = 0.291*[#   4]+0.291*[#   8]+0.114*[#   3]+0.114*[#   7]+0.044*[#   1]
          +0.044*[#   5]
    |psi|^2 = 0.896
==== e(  10) =     5.09533 eV ==== 
     psi = 0.333*[#   3]+0.333*[#   7]+0.120*[#   4]+0.120*[#   8]+0.021*[#   1]
          +0.021*[#   5]
    |psi|^2 = 0.947
==== e(  11) =     5.31669 eV ==== 
     psi = 0.009*[#   4]+0.009*[#   8]+0.003*[#   3]+0.003*[#   7]
    |psi|^2 = 0.023
==== e(  12) =     6.24646 eV ==== 
     psi = 0.492*[#   2]+0.492*[#   6]
    |psi|^2 = 0.984

 k =   0.0833333333  0.1443375672  0.0000000000
==== e(   1) =   -23.27485 eV ==== 
     psi = 0.421*[#   1]+0.421*[#   5]+0.053*[#   4]+0.053*[#   8]+0.018*[#   3]
          +0.018*[#   7]
    |psi|^2 = 0.983
==== e(   2) =   -11.27516 eV ==== 
     psi = 0.480*[#   2]+0.480*[#   6]
    |psi|^2 = 0.959
==== e(   3) =    -8.98051 eV ==== 
     psi = 0.327*[#   4]+0.327*[#   8]+0.132*[#   3]+0.132*[#   7]+0.040*[#   1]
          +0.040*[#   5]
    |psi|^2 = 0.998
==== e(   4) =    -8.31093 eV ==== 
     psi = 0.350*[#   3]+0.350*[#   7]+0.142*[#   4]+0.142*[#   8]+0.006*[#   1]
          +0.006*[#   5]
    |psi|^2 = 0.995
==== e(   5) =    -0.35565 eV ==== 
     psi = 0.013*[#   4]+0.013*[#   8]+0.004*[#   3]+0.004*[#   7]
    |psi|^2 = 0.035
==== e(   6) =     0.45693 eV ==== 
     psi = 0.009*[#   2]+0.009*[#   6]
    |psi|^2 = 0.019
==== e(   7) =     2.02446 eV ==== 
     psi = 0.002*[#   4]+0.002*[#   8]
    |psi|^2 = 0.006
==== e(   8) =     2.97728 eV ==== 
     psi = 0.006*[#   2]+0.006*[#   6]
    |psi|^2 = 0.013
==== e(   9) =     4.43701 eV ==== 
     psi = 0.260*[#   4]+0.260*[#   8]+0.113*[#   3]+0.113*[#   7]+0.065*[#   1]
          +0.065*[#   5]
    |psi|^2 = 0.875
==== e(  10) =     5.59104 eV ==== 
     psi = 0.489*[#   2]+0.489*[#   6]
    |psi|^2 = 0.978
==== e(  11) =     5.61346 eV ==== 
     psi = 0.010*[#   4]+0.010*[#   8]+0.004*[#   3]+0.004*[#   7]
    |psi|^2 = 0.028
==== e(  12) =     5.65383 eV ==== 
     psi = 0.306*[#   3]+0.306*[#   7]+0.110*[#   4]+0.110*[#   8]+0.058*[#   1]
          +0.058*[#   5]
    |psi|^2 = 0.946

 k =   0.1041666667  0.1804219592  0.0000000000
==== e(   1) =   -23.00000 eV ==== 
     psi = 0.394*[#   1]+0.394*[#   5]+0.073*[#   4]+0.073*[#   8]+0.024*[#   3]
          +0.024*[#   7]
    |psi|^2 = 0.982
==== e(   2) =   -10.94951 eV ==== 
     psi = 0.483*[#   2]+0.483*[#   6]
    |psi|^2 = 0.966
==== e(   3) =    -9.71317 eV ==== 
     psi = 0.310*[#   4]+0.310*[#   8]+0.133*[#   3]+0.133*[#   7]+0.055*[#   1]
          +0.055*[#   5]
    |psi|^2 = 0.997
==== e(   4) =    -8.82346 eV ==== 
     psi = 0.341*[#   3]+0.341*[#   7]+0.146*[#   4]+0.146*[#   8]+0.010*[#   1]
          +0.010*[#   5]
    |psi|^2 = 0.993
==== e(   5) =     0.02042 eV ==== 
     psi = 0.015*[#   4]+0.015*[#   8]+0.005*[#   3]+0.005*[#   7]
    |psi|^2 = 0.040
==== e(   6) =     0.83555 eV ==== 
     psi = 0.008*[#   2]+0.008*[#   6]
    |psi|^2 = 0.016
==== e(   7) =     2.40267 eV ==== 
     psi = 0.002*[#   4]+0.002*[#   8]
    |psi|^2 = 0.006
==== e(   8) =     3.34972 eV ==== 
     psi = 0.005*[#   2]+0.005*[#   6]
    |psi|^2 = 0.011
==== e(   9) =     4.66914 eV ==== 
     psi = 0.233*[#   4]+0.233*[#   8]+0.113*[#   3]+0.113*[#   7]+0.083*[#   1]
          +0.083*[#   5]
    |psi|^2 = 0.858
==== e(  10) =     4.81789 eV ==== 
     psi = 0.486*[#   2]+0.486*[#   6]
    |psi|^2 = 0.972
==== e(  11) =     5.99166 eV ==== 
     psi = 0.010*[#   4]+0.010*[#   8]+0.004*[#   3]+0.004*[#   7]
    |psi|^2 = 0.029
==== e(  12) =     6.16872 eV ==== 
     psi = 0.268*[#   3]+0.268*[#   7]+0.113*[#   1]+0.113*[#   5]+0.093*[#   4]
          +0.093*[#   8]
    |psi|^2 = 0.948

 k =   0.1250000000  0.2165063509  0.0000000000
==== e(   1) =   -22.66538 eV ==== 
     psi = 0.368*[#   1]+0.368*[#   5]+0.092*[#   4]+0.092*[#   8]+0.031*[#   3]
          +0.031*[#   7]
    |psi|^2 = 0.982
==== e(   2) =   -10.55519 eV ==== 
     psi = 0.486*[#   2]+0.486*[#   6]
    |psi|^2 = 0.972
==== e(   3) =   -10.48044 eV ==== 
     psi = 0.294*[#   4]+0.294*[#   8]+0.134*[#   3]+0.134*[#   7]+0.071*[#   1]
          +0.071*[#   5]
    |psi|^2 = 0.997
==== e(   4) =    -9.40094 eV ==== 
     psi = 0.331*[#   3]+0.331*[#   7]+0.149*[#   4]+0.149*[#   8]+0.016*[#   1]
          +0.016*[#   5]
    |psi|^2 = 0.992
==== e(   5) =     0.47984 eV ==== 
     psi = 0.015*[#   4]+0.015*[#   8]+0.005*[#   3]+0.005*[#   7]
    |psi|^2 = 0.040
==== e(   6) =     1.29727 eV ==== 
     psi = 0.006*[#   2]+0.006*[#   6]
    |psi|^2 = 0.013
==== e(   7) =     2.86496 eV ==== 
     psi = 0.002*[#   4]+0.002*[#   8]
    |psi|^2 = 0.006
==== e(   8) =     3.80273 eV ==== 
     psi = 0.004*[#   2]+0.004*[#   6]
    |psi|^2 = 0.008
==== e(   9) =     3.96293 eV ==== 
     psi = 0.485*[#   2]+0.485*[#   6]
    |psi|^2 = 0.969
==== e(  10) =     4.97004 eV ==== 
     psi = 0.210*[#   4]+0.210*[#   8]+0.113*[#   3]+0.113*[#   7]+0.099*[#   1]
          +0.099*[#   5]
    |psi|^2 = 0.845
==== e(  11) =     6.45090 eV ==== 
     psi = 0.009*[#   4]+0.009*[#   8]+0.004*[#   3]+0.004*[#   7]
    |psi|^2 = 0.027
==== e(  12) =     6.60351 eV ==== 
     psi = 0.227*[#   3]+0.227*[#   7]+0.171*[#   1]+0.171*[#   5]+0.076*[#   4]
          +0.076*[#   8]
    |psi|^2 = 0.949

 k =   0.1458333333  0.2525907427  0.0000000000
==== e(   1) =   -22.27191 eV ==== 
     psi = 0.345*[#   1]+0.345*[#   5]+0.109*[#   4]+0.109*[#   8]+0.037*[#   3]
          +0.037*[#   7]
    |psi|^2 = 0.981
==== e(   2) =   -11.25601 eV ==== 
     psi = 0.278*[#   4]+0.278*[#   8]+0.134*[#   3]+0.134*[#   7]+0.087*[#   1]
          +0.087*[#   5]
    |psi|^2 = 0.997
==== e(   3) =   -10.09480 eV ==== 
     psi = 0.490*[#   2]+0.490*[#   6]
    |psi|^2 = 0.979
==== e(   4) =   -10.02285 eV ==== 
     psi = 0.323*[#   3]+0.323*[#   7]+0.151*[#   4]+0.151*[#   8]+0.022*[#   1]
          +0.022*[#   5]
    |psi|^2 = 0.991
==== e(   5) =     1.02227 eV ==== 
     psi = 0.014*[#   4]+0.014*[#   8]+0.005*[#   3]+0.005*[#   7]
    |psi|^2 = 0.037
==== e(   6) =     1.84114 eV ==== 
     psi = 0.005*[#   2]+0.005*[#   6]
    |psi|^2 = 0.010
==== e(   7) =     3.05846 eV ==== 
     psi = 0.484*[#   2]+0.484*[#   6]
    |psi|^2 = 0.968
==== e(   8) =     3.41113 eV ==== 
     psi = 0.002*[#   4]+0.002*[#   8]
    |psi|^2 = 0.005
==== e(   9) =     4.33418 eV ==== 
     psi = 0.003*[#   2]+0.003*[#   6]
    |psi|^2 = 0.006
==== e(  10) =     5.34004 eV ==== 
     psi = 0.191*[#   4]+0.191*[#   8]+0.113*[#   3]+0.113*[#   7]+0.112*[#   1]
          +0.112*[#   5]
    |psi|^2 = 0.832
==== e(  11) =     6.96792 eV ==== 
     psi = 0.218*[#   1]+0.218*[#   5]+0.192*[#   3]+0.192*[#   7]+0.064*[#   4]
          +0.064*[#   8]
    |psi|^2 = 0.949
==== e(  12) =     6.99098 eV ==== 
     psi = 0.008*[#   4]+0.008*[#   8]+0.003*[#   3]+0.003*[#   7]
    |psi|^2 = 0.023

 k =   0.1666666667  0.2886751347  0.0000000000
==== e(   1) =   -21.82074 eV ==== 
     psi = 0.323*[#   1]+0.323*[#   5]+0.125*[#   4]+0.125*[#   8]+0.042*[#   3]
          +0.042*[#   7]
    |psi|^2 = 0.981
==== e(   2) =   -12.02167 eV ==== 
     psi = 0.262*[#   4]+0.262*[#   8]+0.134*[#   3]+0.134*[#   7]+0.103*[#   1]
          +0.103*[#   5]
    |psi|^2 = 0.996
==== e(   3) =   -10.67027 eV ==== 
     psi = 0.315*[#   3]+0.315*[#   7]+0.153*[#   4]+0.153*[#   8]+0.027*[#   1]
          +0.027*[#   5]
    |psi|^2 = 0.990
==== e(   4) =    -9.57190 eV ==== 
     psi = 0.493*[#   2]+0.493*[#   6]
    |psi|^2 = 0.985
==== e(   5) =     1.64716 eV ==== 
     psi = 0.012*[#   4]+0.012*[#   8]+0.004*[#   3]+0.004*[#   7]
    |psi|^2 = 0.031
==== e(   6) =     2.13165 eV ==== 
     psi = 0.484*[#   2]+0.484*[#   6]
    |psi|^2 = 0.969
==== e(   7) =     2.46551 eV ==== 
     psi = 0.003*[#   2]+0.003*[#   6]
    |psi|^2 = 0.007
==== e(   8) =     4.04072 eV ==== 
 
    |psi|^2 = 0.004
==== e(   9) =     4.94007 eV ==== 
     psi = 0.002*[#   2]+0.002*[#   6]
    |psi|^2 = 0.004
==== e(  10) =     5.77651 eV ==== 
     psi = 0.175*[#   4]+0.175*[#   8]+0.121*[#   1]+0.121*[#   5]+0.111*[#   3]
          +0.111*[#   7]
    |psi|^2 = 0.815
==== e(  11) =     7.28671 eV ==== 
     psi = 0.251*[#   1]+0.251*[#   5]+0.164*[#   3]+0.164*[#   7]+0.058*[#   4]
          +0.058*[#   8]
    |psi|^2 = 0.945
==== e(  12) =     7.61150 eV ==== 
     psi = 0.006*[#   4]+0.006*[#   8]+0.002*[#   3]+0.002*[#   7]
    |psi|^2 = 0.018

 k =   0.1875000000  0.3247595264  0.0000000000
==== e(   1) =   -21.31366 eV ==== 
     psi = 0.304*[#   1]+0.304*[#   5]+0.139*[#   4]+0.139*[#   8]+0.047*[#   3]
          +0.047*[#   7]
    |psi|^2 = 0.982
==== e(   2) =   -12.76494 eV ==== 
     psi = 0.246*[#   4]+0.246*[#   8]+0.133*[#   3]+0.133*[#   7]+0.119*[#   1]
          +0.119*[#   5]
    |psi|^2 = 0.996
==== e(   3) =   -11.32652 eV ==== 
     psi = 0.309*[#   3]+0.309*[#   7]+0.154*[#   4]+0.154*[#   8]+0.031*[#   1]
          +0.031*[#   5]
    |psi|^2 = 0.989
==== e(   4) =    -8.99127 eV ==== 
     psi = 0.495*[#   2]+0.495*[#   6]
    |psi|^2 = 0.990
==== e(   5) =     1.20440 eV ==== 
     psi = 0.486*[#   2]+0.486*[#   6]
    |psi|^2 = 0.971
==== e(   6) =     2.35366 eV ==== 
     psi = 0.009*[#   4]+0.009*[#   8]+0.003*[#   3]+0.003*[#   7]
    |psi|^2 = 0.024
==== e(   7) =     3.16734 eV ==== 
     psi = 0.002*[#   2]+0.002*[#   6]
    |psi|^2 = 0.004
==== e(   8) =     4.75294 eV ==== 
     psi = 0.001*[#   1]+0.001*[#   5]
    |psi|^2 = 0.004
==== e(   9) =     5.61228 eV ==== 
     psi = 0.001*[#   2]+0.001*[#   6]
    |psi|^2 = 0.002
==== e(  10) =     6.27379 eV ==== 
     psi = 0.161*[#   4]+0.161*[#   8]+0.128*[#   1]+0.128*[#   5]+0.107*[#   3]
          +0.107*[#   7]
    |psi|^2 = 0.792
==== e(  11) =     7.57982 eV ==== 
     psi = 0.270*[#   1]+0.270*[#   5]+0.143*[#   3]+0.143*[#   7]+0.055*[#   4]
          +0.055*[#   8]
    |psi|^2 = 0.937
==== e(  12) =     8.31148 eV ==== 
     psi = 0.004*[#   4]+0.004*[#   8]+0.002*[#   3]+0.002*[#   7]
    |psi|^2 = 0.013

 k =   0.2083333333  0.3608439182  0.0000000000
==== e(   1) =   -20.75295 eV ==== 
     psi = 0.287*[#   1]+0.287*[#   5]+0.151*[#   4]+0.151*[#   8]+0.052*[#   3]
          +0.052*[#   7]
    |psi|^2 = 0.982
==== e(   2) =   -13.47704 eV ==== 
     psi = 0.231*[#   4]+0.231*[#   8]+0.135*[#   1]+0.135*[#   5]+0.132*[#   3]
          +0.132*[#   7]
    |psi|^2 = 0.995
==== e(   3) =   -11.97686 eV ==== 
     psi = 0.305*[#   3]+0.305*[#   7]+0.156*[#   4]+0.156*[#   8]+0.034*[#   1]
          +0.034*[#   5]
    |psi|^2 = 0.989
==== e(   4) =    -8.35933 eV ==== 
     psi = 0.497*[#   2]+0.497*[#   6]
    |psi|^2 = 0.993
==== e(   5) =     0.29397 eV ==== 
     psi = 0.487*[#   2]+0.487*[#   6]
    |psi|^2 = 0.974
==== e(   6) =     3.14041 eV ==== 
     psi = 0.006*[#   4]+0.006*[#   8]+0.002*[#   3]+0.002*[#   7]
    |psi|^2 = 0.017
==== e(   7) =     3.94035 eV ==== 
     psi = 0.001*[#   2]+0.001*[#   6]
    |psi|^2 = 0.002
==== e(   8) =     5.54628 eV ==== 
     psi = 0.002*[#   1]+0.002*[#   5]
    |psi|^2 = 0.006
==== e(   9) =     6.33167 eV ==== 
 
    |psi|^2 = 0.001
==== e(  10) =     6.82318 eV ==== 
     psi = 0.146*[#   4]+0.146*[#   8]+0.132*[#   1]+0.132*[#   5]+0.101*[#   3]
          +0.101*[#   7]
    |psi|^2 = 0.758
==== e(  11) =     7.85840 eV ==== 
     psi = 0.279*[#   1]+0.279*[#   5]+0.126*[#   3]+0.126*[#   7]+0.055*[#   4]
          +0.055*[#   8]
    |psi|^2 = 0.921
==== e(  12) =     9.08880 eV ==== 
     psi = 0.003*[#   4]+0.003*[#   8]+0.001*[#   3]+0.001*[#   7]
    |psi|^2 = 0.008

 k =   0.2291666667  0.3969283101  0.0000000000
==== e(   1) =   -20.14208 eV ==== 
     psi = 0.273*[#   1]+0.273*[#   5]+0.162*[#   4]+0.162*[#   8]+0.057*[#   3]
          +0.057*[#   7]
    |psi|^2 = 0.984
==== e(   2) =   -14.15182 eV ==== 
     psi = 0.215*[#   4]+0.215*[#   8]+0.151*[#   1]+0.151*[#   5]+0.132*[#   3]
          +0.132*[#   7]
    |psi|^2 = 0.995
==== e(   3) =   -12.60829 eV ==== 
     psi = 0.301*[#   3]+0.301*[#   7]+0.158*[#   4]+0.158*[#   8]+0.035*[#   1]
          +0.035*[#   5]
    |psi|^2 = 0.988
==== e(   4) =    -7.68477 eV ==== 
     psi = 0.498*[#   2]+0.498*[#   6]
    |psi|^2 = 0.995
==== e(   5) =    -0.58618 eV ==== 
     psi = 0.489*[#   2]+0.489*[#   6]
    |psi|^2 = 0.978
==== e(   6) =     4.00506 eV ==== 
     psi = 0.004*[#   4]+0.004*[#   8]+0.001*[#   3]+0.001*[#   7]
    |psi|^2 = 0.011
==== e(   7) =     4.76918 eV ==== 
 
    |psi|^2 = 0.001
==== e(   8) =     6.41751 eV ==== 
     psi = 0.004*[#   1]+0.004*[#   5]+0.002*[#   3]+0.002*[#   7]
    |psi|^2 = 0.013
==== e(   9) =     7.04438 eV ==== 
 
    |psi|^2 = 0.000
==== e(  10) =     7.41097 eV ==== 
     psi = 0.131*[#   1]+0.131*[#   5]+0.130*[#   4]+0.130*[#   8]+0.092*[#   3]
          +0.092*[#   7]
    |psi|^2 = 0.706
==== e(  11) =     8.12497 eV ==== 
     psi = 0.278*[#   1]+0.278*[#   5]+0.112*[#   3]+0.112*[#   7]+0.057*[#   4]
          +0.057*[#   8]
    |psi|^2 = 0.895
==== e(  12) =     9.60117 eV ==== 
 
    |psi|^2 = 0.001

 k =   0.2500000000  0.4330127019  0.0000000000
==== e(   1) =   -19.48639 eV ==== 
     psi = 0.260*[#   1]+0.260*[#   5]+0.171*[#   4]+0.171*[#   8]+0.062*[#   3]
          +0.062*[#   7]
    |psi|^2 = 0.985
==== e(   2) =   -14.78493 eV ==== 
     psi = 0.198*[#   4]+0.198*[#   8]+0.168*[#   1]+0.168*[#   5]+0.131*[#   3]
          +0.131*[#   7]
    |psi|^2 = 0.995
==== e(   3) =   -13.20844 eV ==== 
     psi = 0.298*[#   3]+0.298*[#   7]+0.161*[#   4]+0.161*[#   8]+0.034*[#   1]
          +0.034*[#   5]
    |psi|^2 = 0.987
==== e(   4) =    -6.97937 eV ==== 
     psi = 0.498*[#   2]+0.498*[#   6]
    |psi|^2 = 0.996
==== e(   5) =    -1.42568 eV ==== 
     psi = 0.491*[#   2]+0.491*[#   6]
    |psi|^2 = 0.982
==== e(   6) =     4.94325 eV ==== 
     psi = 0.002*[#   4]+0.002*[#   8]+0.001*[#   1]+0.001*[#   5]
    |psi|^2 = 0.008
==== e(   7) =     5.60689 eV ==== 
 
    |psi|^2 = 0.000
==== e(   8) =     7.35704 eV ==== 
     psi = 0.011*[#   1]+0.011*[#   5]+0.005*[#   3]+0.005*[#   7]+0.004*[#   4]
          +0.004*[#   8]
    |psi|^2 = 0.039
==== e(   9) =     7.60122 eV ==== 
 
    |psi|^2 = 0.000
==== e(  10) =     8.01843 eV ==== 
     psi = 0.122*[#   1]+0.122*[#   5]+0.111*[#   4]+0.111*[#   8]+0.077*[#   3]
          +0.077*[#   7]
    |psi|^2 = 0.619
==== e(  11) =     8.37372 eV ==== 
     psi = 0.267*[#   1]+0.267*[#   5]+0.099*[#   3]+0.099*[#   7]+0.060*[#   4]
          +0.060*[#   8]
    |psi|^2 = 0.853
==== e(  12) =     9.53851 eV ==== 
 
    |psi|^2 = 0.001

 k =   0.2708333333  0.4690970937  0.0000000000
==== e(   1) =   -18.79504 eV ==== 
     psi = 0.249*[#   1]+0.249*[#   5]+0.176*[#   4]+0.176*[#   8]+0.068*[#   3]
          +0.068*[#   7]
    |psi|^2 = 0.987
==== e(   2) =   -15.37324 eV ==== 
     psi = 0.184*[#   1]+0.184*[#   5]+0.182*[#   4]+0.182*[#   8]+0.131*[#   3]
          +0.131*[#   7]
    |psi|^2 = 0.994
==== e(   3) =   -13.76365 eV ==== 
     psi = 0.296*[#   3]+0.296*[#   7]+0.167*[#   4]+0.167*[#   8]+0.030*[#   1]
          +0.030*[#   5]
    |psi|^2 = 0.986
==== e(   4) =    -6.25896 eV ==== 
     psi = 0.498*[#   2]+0.498*[#   6]
    |psi|^2 = 0.996
==== e(   5) =    -2.21651 eV ==== 
     psi = 0.493*[#   2]+0.493*[#   6]
    |psi|^2 = 0.986
==== e(   6) =     5.94571 eV ==== 
     psi = 0.004*[#   1]+0.004*[#   5]+0.001*[#   3]+0.001*[#   7]
    |psi|^2 = 0.011
==== e(   7) =     6.28383 eV ==== 
 
    |psi|^2 = 0.000
==== e(   8) =     7.94312 eV ==== 
 
    |psi|^2 = 0.001
==== e(   9) =     8.30575 eV ==== 
     psi = 0.053*[#   1]+0.053*[#   5]+0.029*[#   4]+0.029*[#   8]+0.025*[#   3]
          +0.025*[#   7]
    |psi|^2 = 0.214
==== e(  10) =     8.58753 eV ==== 
     psi = 0.245*[#   1]+0.245*[#   5]+0.086*[#   3]+0.086*[#   7]+0.060*[#   4]
          +0.060*[#   8]
    |psi|^2 = 0.783
==== e(  11) =     8.65281 eV ==== 
     psi = 0.071*[#   1]+0.071*[#   5]+0.065*[#   4]+0.065*[#   8]+0.042*[#   3]
          +0.042*[#   7]
    |psi|^2 = 0.358
==== e(  12) =     9.99867 eV ==== 
 
    |psi|^2 = 0.000

 k =   0.2916666667  0.5051814856  0.0000000000
==== e(   1) =   -18.08587 eV ==== 
     psi = 0.242*[#   1]+0.242*[#   5]+0.177*[#   4]+0.177*[#   8]+0.076*[#   3]
          +0.076*[#   7]
    |psi|^2 = 0.989
==== e(   2) =   -15.91448 eV ==== 
     psi = 0.201*[#   1]+0.201*[#   5]+0.165*[#   4]+0.165*[#   8]+0.131*[#   3]
          +0.131*[#   7]
    |psi|^2 = 0.994
==== e(   3) =   -14.25393 eV ==== 
     psi = 0.292*[#   3]+0.292*[#   7]+0.178*[#   4]+0.178*[#   8]+0.023*[#   1]
          +0.023*[#   5]
    |psi|^2 = 0.984
==== e(   4) =    -5.54434 eV ==== 
     psi = 0.498*[#   2]+0.498*[#   6]
    |psi|^2 = 0.996
==== e(   5) =    -2.95238 eV ==== 
     psi = 0.494*[#   2]+0.494*[#   6]
    |psi|^2 = 0.989
==== e(   6) =     6.49960 eV ==== 
 
    |psi|^2 = 0.001
==== e(   7) =     6.98889 eV ==== 
     psi = 0.010*[#   1]+0.010*[#   5]+0.003*[#   3]+0.003*[#   7]+0.001*[#   4]
          +0.001*[#   8]
    |psi|^2 = 0.028
==== e(   8) =     8.57416 eV ==== 
 
    |psi|^2 = 0.000
==== e(   9) =     8.73269 eV ==== 
     psi = 0.207*[#   1]+0.207*[#   5]+0.070*[#   3]+0.070*[#   7]+0.057*[#   4]
          +0.057*[#   8]
    |psi|^2 = 0.669
==== e(  10) =     8.92607 eV ==== 
     psi = 0.103*[#   1]+0.103*[#   5]+0.066*[#   4]+0.066*[#   8]+0.046*[#   3]
          +0.046*[#   7]
    |psi|^2 = 0.429
==== e(  11) =     9.55157 eV ==== 
     psi = 0.004*[#   4]+0.004*[#   8]+0.001*[#   3]+0.001*[#   7]+0.001*[#   1]
          +0.001*[#   5]
    |psi|^2 = 0.013
==== e(  12) =    10.83587 eV ==== 
 
    |psi|^2 = 0.000

 k =   0.3125000000  0.5412658774  0.0000000000
==== e(   1) =   -17.40065 eV ==== 
     psi = 0.239*[#   1]+0.239*[#   5]+0.165*[#   4]+0.165*[#   8]+0.092*[#   3]
          +0.092*[#   7]
    |psi|^2 = 0.992
==== e(   2) =   -16.40704 eV ==== 
     psi = 0.217*[#   1]+0.217*[#   5]+0.148*[#   4]+0.148*[#   8]+0.131*[#   3]
          +0.131*[#   7]
    |psi|^2 = 0.994
==== e(   3) =   -14.63798 eV ==== 
     psi = 0.280*[#   3]+0.280*[#   7]+0.201*[#   4]+0.201*[#   8]+0.010*[#   1]
          +0.010*[#   5]
    |psi|^2 = 0.982
==== e(   4) =    -4.86168 eV ==== 
     psi = 0.497*[#   2]+0.497*[#   6]
    |psi|^2 = 0.995
==== e(   5) =    -3.62847 eV ==== 
     psi = 0.496*[#   2]+0.496*[#   6]
    |psi|^2 = 0.992
==== e(   6) =     6.42738 eV ==== 
 
    |psi|^2 = 0.000
==== e(   7) =     7.99424 eV ==== 
     psi = 0.032*[#   1]+0.032*[#   5]+0.011*[#   3]+0.011*[#   7]+0.007*[#   4]
          +0.007*[#   8]
    |psi|^2 = 0.099
==== e(   8) =     8.75830 eV ==== 
     psi = 0.154*[#   1]+0.154*[#   5]+0.051*[#   3]+0.051*[#   7]+0.046*[#   4]
          +0.046*[#   8]
    |psi|^2 = 0.502
==== e(   9) =     9.17835 eV ==== 
     psi = 0.059*[#   1]+0.059*[#   5]+0.038*[#   4]+0.038*[#   8]+0.022*[#   3]
          +0.022*[#   7]
    |psi|^2 = 0.238
==== e(  10) =     9.56802 eV ==== 
 
    |psi|^2 = 0.000
==== e(  11) =    10.55562 eV ==== 
     psi = 0.014*[#   1]+0.014*[#   5]+0.008*[#   3]+0.008*[#   7]+0.004*[#   4]
          +0.004*[#   8]
    |psi|^2 = 0.053
==== e(  12) =    11.28762 eV ==== 
 
    |psi|^2 = 0.000

 k =   0.3333333333  0.5773502691  0.0000000000
==== e(   1) =   -16.84971 eV ==== 
     psi = 0.287*[#   5]+0.180*[#   1]+0.162*[#   3]+0.162*[#   4]+0.101*[#   7]
          +0.101*[#   8]
    |psi|^2 = 0.994
==== e(   2) =   -16.84971 eV ==== 
     psi = 0.287*[#   1]+0.180*[#   5]+0.162*[#   7]+0.162*[#   8]+0.101*[#   3]
          +0.101*[#   4]
    |psi|^2 = 0.994
==== e(   3) =   -14.80891 eV ==== 
     psi = 0.245*[#   3]+0.245*[#   4]+0.245*[#   7]+0.245*[#   8]
    |psi|^2 = 0.981
==== e(   4) =    -4.24096 eV ==== 
     psi = 0.811*[#   6]+0.182*[#   2]
    |psi|^2 = 0.994
==== e(   5) =    -4.24096 eV ==== 
     psi = 0.811*[#   2]+0.182*[#   6]
    |psi|^2 = 0.994
==== e(   6) =     6.37205 eV ==== 
 
    |psi|^2 = 0.000
==== e(   7) =     8.62529 eV ==== 
     psi = 0.130*[#   1]+0.064*[#   5]+0.041*[#   7]+0.041*[#   8]+0.020*[#   3]
          +0.020*[#   4]
    |psi|^2 = 0.318
==== e(   8) =     8.62529 eV ==== 
     psi = 0.130*[#   5]+0.064*[#   1]+0.041*[#   3]+0.041*[#   4]+0.020*[#   7]
          +0.020*[#   8]
    |psi|^2 = 0.318
==== e(   9) =     9.21983 eV ==== 
     psi = 0.003*[#   3]+0.003*[#   4]+0.003*[#   7]+0.003*[#   8]
    |psi|^2 = 0.012
==== e(  10) =    10.57329 eV ==== 
 
    |psi|^2 = 0.000
==== e(  11) =    10.57329 eV ==== 
 
    |psi|^2 = 0.000
==== e(  12) =    11.11274 eV ==== 
     psi = 0.123*[#   5]+0.057*[#   3]+0.057*[#   4]+0.044*[#   1]+0.020*[#   7]
          +0.020*[#   8]
    |psi|^2 = 0.322

 k =   0.3518518519  0.5452752543  0.0000000000
==== e(   1) =   -17.20063 eV ==== 
     psi = 0.248*[#   1]+0.248*[#   5]+0.132*[#   3]+0.132*[#   7]+0.117*[#   4]
          +0.117*[#   8]
    |psi|^2 = 0.993
==== e(   2) =   -16.62997 eV ==== 
     psi = 0.205*[#   1]+0.205*[#   5]+0.193*[#   3]+0.193*[#   7]+0.098*[#   4]
          +0.098*[#   8]
    |psi|^2 = 0.992
==== e(   3) =   -14.63032 eV ==== 
     psi = 0.289*[#   4]+0.289*[#   8]+0.188*[#   3]+0.188*[#   7]+0.014*[#   1]
          +0.014*[#   5]
    |psi|^2 = 0.983
==== e(   4) =    -4.72958 eV ==== 
     psi = 0.498*[#   2]+0.498*[#   6]
    |psi|^2 = 0.995
==== e(   5) =    -3.76483 eV ==== 
     psi = 0.496*[#   2]+0.496*[#   6]
    |psi|^2 = 0.991
==== e(   6) =     6.42973 eV ==== 
 
    |psi|^2 = 0.001
==== e(   7) =     8.39184 eV ==== 
     psi = 0.058*[#   1]+0.058*[#   5]+0.019*[#   4]+0.019*[#   8]+0.018*[#   3]
          +0.018*[#   7]
    |psi|^2 = 0.190
==== e(   8) =     8.52170 eV ==== 
     psi = 0.114*[#   1]+0.114*[#   5]+0.036*[#   4]+0.036*[#   8]+0.032*[#   3]
          +0.032*[#   7]
    |psi|^2 = 0.365
==== e(   9) =     9.02679 eV ==== 
     psi = 0.053*[#   1]+0.053*[#   5]+0.032*[#   3]+0.032*[#   7]+0.016*[#   4]
          +0.016*[#   8]
    |psi|^2 = 0.201
==== e(  10) =    10.00769 eV ==== 
 
    |psi|^2 = 0.000
==== e(  11) =    10.53737 eV ==== 
 
    |psi|^2 = 0.000
==== e(  12) =    10.86903 eV ==== 
     psi = 0.069*[#   1]+0.069*[#   5]+0.035*[#   4]+0.035*[#   8]+0.032*[#   3]
          +0.032*[#   7]
    |psi|^2 = 0.271

 k =   0.3703703704  0.5132002393  0.0000000000
==== e(   1) =   -17.51099 eV ==== 
     psi = 0.261*[#   1]+0.261*[#   5]+0.133*[#   3]+0.133*[#   7]+0.103*[#   4]
          +0.103*[#   8]
    |psi|^2 = 0.993
==== e(   2) =   -16.67064 eV ==== 
     psi = 0.240*[#   3]+0.240*[#   7]+0.167*[#   1]+0.167*[#   5]+0.087*[#   4]
          +0.087*[#   8]
    |psi|^2 = 0.988
==== e(   3) =   -14.14277 eV ==== 
     psi = 0.310*[#   4]+0.310*[#   8]+0.146*[#   3]+0.146*[#   7]+0.037*[#   1]
          +0.037*[#   5]
    |psi|^2 = 0.986
==== e(   4) =    -5.16394 eV ==== 
     psi = 0.498*[#   2]+0.498*[#   6]
    |psi|^2 = 0.996
==== e(   5) =    -3.37553 eV ==== 
     psi = 0.493*[#   2]+0.493*[#   6]
    |psi|^2 = 0.987
==== e(   6) =     6.60753 eV ==== 
     psi = 0.002*[#   2]+0.002*[#   6]
    |psi|^2 = 0.003
==== e(   7) =     8.04461 eV ==== 
     psi = 0.194*[#   1]+0.194*[#   5]+0.062*[#   3]+0.062*[#   7]+0.055*[#   4]
          +0.055*[#   8]
    |psi|^2 = 0.623
==== e(   8) =     8.10238 eV ==== 
     psi = 0.035*[#   1]+0.035*[#   5]+0.011*[#   4]+0.011*[#   8]+0.010*[#   3]
          +0.010*[#   7]
    |psi|^2 = 0.110
==== e(   9) =     8.47693 eV ==== 
     psi = 0.023*[#   1]+0.023*[#   5]+0.020*[#   3]+0.020*[#   7]+0.009*[#   4]
          +0.009*[#   8]
    |psi|^2 = 0.103
==== e(  10) =     9.50786 eV ==== 
 
    |psi|^2 = 0.000
==== e(  11) =    10.16352 eV ==== 
 
    |psi|^2 = 0.000
==== e(  12) =    10.61181 eV ==== 
     psi = 0.045*[#   1]+0.045*[#   5]+0.023*[#   4]+0.023*[#   8]+0.021*[#   3]
          +0.021*[#   7]
    |psi|^2 = 0.177

 k =   0.3888888889  0.4811252243  0.0000000000
==== e(   1) =   -17.78046 eV ==== 
     psi = 0.274*[#   1]+0.274*[#   5]+0.133*[#   3]+0.133*[#   7]+0.089*[#   4]
          +0.089*[#   8]
    |psi|^2 = 0.993
==== e(   2) =   -16.82626 eV ==== 
     psi = 0.262*[#   3]+0.262*[#   7]+0.141*[#   1]+0.141*[#   5]+0.089*[#   4]
          +0.089*[#   8]
    |psi|^2 = 0.985
==== e(   3) =   -13.50398 eV ==== 
     psi = 0.320*[#   4]+0.320*[#   8]+0.128*[#   3]+0.128*[#   7]+0.046*[#   1]
          +0.046*[#   5]
    |psi|^2 = 0.989
==== e(   4) =    -5.54268 eV ==== 
     psi = 0.498*[#   2]+0.498*[#   6]
    |psi|^2 = 0.997
==== e(   5) =    -3.07812 eV ==== 
     psi = 0.490*[#   2]+0.490*[#   6]
    |psi|^2 = 0.980
==== e(   6) =     6.88451 eV ==== 
     psi = 0.004*[#   2]+0.004*[#   6]
    |psi|^2 = 0.008
==== e(   7) =     7.17174 eV ==== 
     psi = 0.245*[#   1]+0.245*[#   5]+0.082*[#   3]+0.082*[#   7]+0.063*[#   4]
          +0.063*[#   8]
    |psi|^2 = 0.781
==== e(   8) =     7.80360 eV ==== 
     psi = 0.021*[#   1]+0.021*[#   5]+0.006*[#   4]+0.006*[#   8]+0.005*[#   3]
          +0.005*[#   7]
    |psi|^2 = 0.065
==== e(   9) =     8.05408 eV ==== 
     psi = 0.005*[#   3]+0.005*[#   7]+0.002*[#   4]+0.002*[#   8]
    |psi|^2 = 0.014
==== e(  10) =     9.07417 eV ==== 
 
    |psi|^2 = 0.000
==== e(  11) =     9.84800 eV ==== 
 
    |psi|^2 = 0.000
==== e(  12) =    10.33259 eV ==== 
     psi = 0.026*[#   1]+0.026*[#   5]+0.014*[#   4]+0.014*[#   8]+0.012*[#   3]
          +0.012*[#   7]
    |psi|^2 = 0.103

 k =   0.4074074074  0.4490502094  0.0000000000
==== e(   1) =   -18.00880 eV ==== 
     psi = 0.286*[#   1]+0.286*[#   5]+0.134*[#   3]+0.134*[#   7]+0.077*[#   4]
          +0.077*[#   8]
    |psi|^2 = 0.993
==== e(   2) =   -17.00483 eV ==== 
     psi = 0.273*[#   3]+0.273*[#   7]+0.127*[#   1]+0.127*[#   5]+0.091*[#   4]
          +0.091*[#   8]
    |psi|^2 = 0.983
==== e(   3) =   -12.82360 eV ==== 
     psi = 0.330*[#   4]+0.330*[#   8]+0.121*[#   3]+0.121*[#   7]+0.044*[#   1]
          +0.044*[#   5]
    |psi|^2 = 0.991
==== e(   4) =    -5.86475 eV ==== 
     psi = 0.499*[#   2]+0.499*[#   6]
    |psi|^2 = 0.997
==== e(   5) =    -2.86660 eV ==== 
     psi = 0.486*[#   2]+0.486*[#   6]
    |psi|^2 = 0.972
==== e(   6) =     6.17442 eV ==== 
     psi = 0.268*[#   1]+0.268*[#   5]+0.085*[#   3]+0.085*[#   7]+0.059*[#   4]
          +0.059*[#   8]
    |psi|^2 = 0.824
==== e(   7) =     7.20009 eV ==== 
     psi = 0.007*[#   2]+0.007*[#   6]
    |psi|^2 = 0.013
==== e(   8) =     7.52541 eV ==== 
     psi = 0.013*[#   1]+0.013*[#   5]+0.003*[#   4]+0.003*[#   8]+0.003*[#   3]
          +0.003*[#   7]
    |psi|^2 = 0.039
==== e(   9) =     7.73122 eV ==== 
     psi = 0.003*[#   3]+0.003*[#   7]+0.001*[#   4]+0.001*[#   8]
    |psi|^2 = 0.009
==== e(  10) =     8.70686 eV ==== 
 
    |psi|^2 = 0.000
==== e(  11) =     9.64544 eV ==== 
 
    |psi|^2 = 0.001
==== e(  12) =    10.05967 eV ==== 
     psi = 0.015*[#   1]+0.015*[#   5]+0.008*[#   4]+0.008*[#   8]+0.007*[#   3]
          +0.007*[#   7]
    |psi|^2 = 0.060

 k =   0.4259259259  0.4169751943  0.0000000000
==== e(   1) =   -18.19582 eV ==== 
     psi = 0.296*[#   1]+0.296*[#   5]+0.135*[#   3]+0.135*[#   7]+0.066*[#   4]
          +0.066*[#   8]
    |psi|^2 = 0.993
==== e(   2) =   -17.16972 eV ==== 
     psi = 0.279*[#   3]+0.279*[#   7]+0.118*[#   1]+0.118*[#   5]+0.093*[#   4]
          +0.093*[#   8]
    |psi|^2 = 0.981
==== e(   3) =   -12.16306 eV ==== 
     psi = 0.341*[#   4]+0.341*[#   8]+0.120*[#   3]+0.120*[#   7]+0.036*[#   1]
          +0.036*[#   5]
    |psi|^2 = 0.993
==== e(   4) =    -6.12932 eV ==== 
     psi = 0.499*[#   2]+0.499*[#   6]
    |psi|^2 = 0.998
==== e(   5) =    -2.72671 eV ==== 
     psi = 0.482*[#   2]+0.482*[#   6]
    |psi|^2 = 0.965
==== e(   6) =     5.21515 eV ==== 
     psi = 0.289*[#   1]+0.289*[#   5]+0.084*[#   3]+0.084*[#   7]+0.052*[#   4]
          +0.052*[#   8]
    |psi|^2 = 0.850
==== e(   7) =     7.28481 eV ==== 
     psi = 0.009*[#   1]+0.009*[#   5]+0.002*[#   3]+0.002*[#   4]+0.002*[#   7]
          +0.002*[#   8]
    |psi|^2 = 0.025
==== e(   8) =     7.46416 eV ==== 
     psi = 0.008*[#   2]+0.008*[#   6]
    |psi|^2 = 0.017
==== e(   9) =     7.46564 eV ==== 
     psi = 0.003*[#   3]+0.003*[#   7]+0.001*[#   4]+0.001*[#   8]
    |psi|^2 = 0.009
==== e(  10) =     8.40612 eV ==== 
 
    |psi|^2 = 0.000
==== e(  11) =     9.58379 eV ==== 
     psi = 0.002*[#   2]+0.002*[#   6]
    |psi|^2 = 0.004
==== e(  12) =     9.81768 eV ==== 
     psi = 0.010*[#   1]+0.010*[#   5]+0.004*[#   3]+0.004*[#   7]+0.004*[#   4]
          +0.004*[#   8]
    |psi|^2 = 0.037

 k =   0.4444444444  0.3849001794  0.0000000000
==== e(   1) =   -18.34143 eV ==== 
     psi = 0.304*[#   1]+0.304*[#   5]+0.135*[#   3]+0.135*[#   7]+0.058*[#   4]
          +0.058*[#   8]
    |psi|^2 = 0.993
==== e(   2) =   -17.30585 eV ==== 
     psi = 0.283*[#   3]+0.283*[#   7]+0.113*[#   1]+0.113*[#   5]+0.094*[#   4]
          +0.094*[#   8]
    |psi|^2 = 0.980
==== e(   3) =   -11.57070 eV ==== 
     psi = 0.352*[#   4]+0.352*[#   8]+0.121*[#   3]+0.121*[#   7]+0.024*[#   1]
          +0.024*[#   5]
    |psi|^2 = 0.994
==== e(   4) =    -6.33572 eV ==== 
     psi = 0.499*[#   2]+0.499*[#   6]
    |psi|^2 = 0.998
==== e(   5) =    -2.64079 eV ==== 
     psi = 0.479*[#   2]+0.479*[#   6]
    |psi|^2 = 0.958
==== e(   6) =     4.37325 eV ==== 
     psi = 0.308*[#   1]+0.308*[#   5]+0.083*[#   3]+0.083*[#   7]+0.044*[#   4]
          +0.044*[#   8]
    |psi|^2 = 0.869
==== e(   7) =     7.09129 eV ==== 
     psi = 0.006*[#   1]+0.006*[#   5]
    |psi|^2 = 0.016
==== e(   8) =     7.25623 eV ==== 
     psi = 0.003*[#   3]+0.003*[#   7]+0.001*[#   4]+0.001*[#   8]
    |psi|^2 = 0.009
==== e(   9) =     7.61271 eV ==== 
     psi = 0.008*[#   2]+0.008*[#   6]
    |psi|^2 = 0.017
==== e(  10) =     8.17209 eV ==== 
 
    |psi|^2 = 0.000
==== e(  11) =     9.62079 eV ==== 
     psi = 0.007*[#   1]+0.007*[#   5]+0.003*[#   3]+0.003*[#   7]+0.002*[#   4]
          +0.002*[#   8]
    |psi|^2 = 0.024
==== e(  12) =     9.64016 eV ==== 
     psi = 0.004*[#   2]+0.004*[#   6]
    |psi|^2 = 0.009

 k =   0.4629629630  0.3528251646  0.0000000000
==== e(   1) =   -18.44550 eV ==== 
     psi = 0.310*[#   1]+0.310*[#   5]+0.136*[#   3]+0.136*[#   7]+0.051*[#   4]
          +0.051*[#   8]
    |psi|^2 = 0.993
==== e(   2) =   -17.40633 eV ==== 
     psi = 0.285*[#   3]+0.285*[#   7]+0.110*[#   1]+0.110*[#   5]+0.095*[#   4]
          +0.095*[#   8]
    |psi|^2 = 0.979
==== e(   3) =   -11.09482 eV ==== 
     psi = 0.363*[#   4]+0.363*[#   8]+0.122*[#   3]+0.122*[#   7]+0.012*[#   1]
          +0.012*[#   5]
    |psi|^2 = 0.995
==== e(   4) =    -6.48348 eV ==== 
     psi = 0.499*[#   2]+0.499*[#   6]
    |psi|^2 = 0.998
==== e(   5) =    -2.59232 eV ==== 
     psi = 0.476*[#   2]+0.476*[#   6]
    |psi|^2 = 0.953
==== e(   6) =     3.71166 eV ==== 
     psi = 0.325*[#   1]+0.325*[#   5]+0.080*[#   3]+0.080*[#   7]+0.035*[#   4]
          +0.035*[#   8]
    |psi|^2 = 0.882
==== e(   7) =     6.95020 eV ==== 
     psi = 0.005*[#   1]+0.005*[#   5]
    |psi|^2 = 0.012
==== e(   8) =     7.10506 eV ==== 
     psi = 0.003*[#   3]+0.003*[#   7]+0.001*[#   4]+0.001*[#   8]
    |psi|^2 = 0.010
==== e(   9) =     7.66195 eV ==== 
     psi = 0.008*[#   2]+0.008*[#   6]
    |psi|^2 = 0.015
==== e(  10) =     8.00486 eV ==== 
 
    |psi|^2 = 0.000
==== e(  11) =     9.47649 eV ==== 
     psi = 0.005*[#   1]+0.005*[#   5]+0.002*[#   3]+0.002*[#   7]+0.001*[#   4]
          +0.001*[#   8]
    |psi|^2 = 0.017
==== e(  12) =     9.53080 eV ==== 
 
    |psi|^2 = 0.003

 k =   0.4814814815  0.3207501495  0.0000000000
==== e(   1) =   -18.50797 eV ==== 
     psi = 0.314*[#   1]+0.314*[#   5]+0.136*[#   3]+0.136*[#   7]+0.047*[#   4]
          +0.047*[#   8]
    |psi|^2 = 0.993
==== e(   2) =   -17.46768 eV ==== 
     psi = 0.286*[#   3]+0.286*[#   7]+0.109*[#   1]+0.109*[#   5]+0.095*[#   4]
          +0.095*[#   8]
    |psi|^2 = 0.979
==== e(   3) =   -10.78339 eV ==== 
     psi = 0.370*[#   4]+0.370*[#   8]+0.124*[#   3]+0.124*[#   7]+0.003*[#   1]
          +0.003*[#   5]
    |psi|^2 = 0.996
==== e(   4) =    -6.57228 eV ==== 
     psi = 0.499*[#   2]+0.499*[#   6]
    |psi|^2 = 0.998
==== e(   5) =    -2.56849 eV ==== 
     psi = 0.475*[#   2]+0.475*[#   6]
    |psi|^2 = 0.950
==== e(   6) =     3.28618 eV ==== 
     psi = 0.337*[#   1]+0.337*[#   5]+0.079*[#   3]+0.079*[#   7]+0.029*[#   4]
          +0.029*[#   8]
    |psi|^2 = 0.889
==== e(   7) =     6.86453 eV ==== 
     psi = 0.004*[#   1]+0.004*[#   5]
    |psi|^2 = 0.010
==== e(   8) =     7.01377 eV ==== 
     psi = 0.004*[#   3]+0.004*[#   7]+0.001*[#   4]+0.001*[#   8]
    |psi|^2 = 0.010
==== e(   9) =     7.66649 eV ==== 
     psi = 0.007*[#   2]+0.007*[#   6]
    |psi|^2 = 0.014
==== e(  10) =     7.90450 eV ==== 
 
    |psi|^2 = 0.000
==== e(  11) =     9.38867 eV ==== 
     psi = 0.004*[#   1]+0.004*[#   5]+0.002*[#   3]+0.002*[#   7]
    |psi|^2 = 0.013
==== e(  12) =     9.43729 eV ==== 
 
    |psi|^2 = 0.003

 k =   0.5000000000  0.2886751346  0.0000000000
==== e(   1) =   -18.52878 eV ==== 
     psi = 0.315*[#   1]+0.315*[#   5]+0.136*[#   3]+0.136*[#   7]+0.045*[#   4]
          +0.045*[#   8]
    |psi|^2 = 0.993
==== e(   2) =   -17.48829 eV ==== 
     psi = 0.286*[#   3]+0.286*[#   7]+0.108*[#   1]+0.108*[#   5]+0.095*[#   4]
          +0.095*[#   8]
    |psi|^2 = 0.979
==== e(   3) =   -10.67459 eV ==== 
     psi = 0.373*[#   4]+0.373*[#   8]+0.124*[#   3]+0.124*[#   7]
    |psi|^2 = 0.996
==== e(   4) =    -6.60189 eV ==== 
     psi = 0.499*[#   2]+0.499*[#   6]
    |psi|^2 = 0.998
==== e(   5) =    -2.56142 eV ==== 
     psi = 0.474*[#   2]+0.474*[#   6]
    |psi|^2 = 0.949
==== e(   6) =     3.13905 eV ==== 
     psi = 0.341*[#   1]+0.341*[#   5]+0.078*[#   3]+0.078*[#   7]+0.026*[#   4]
          +0.026*[#   8]
    |psi|^2 = 0.891
==== e(   7) =     6.83582 eV ==== 
     psi = 0.004*[#   1]+0.004*[#   5]
    |psi|^2 = 0.009
==== e(   8) =     6.98324 eV ==== 
     psi = 0.004*[#   3]+0.004*[#   7]+0.001*[#   4]+0.001*[#   8]
    |psi|^2 = 0.010
==== e(   9) =     7.66408 eV ==== 
     psi = 0.007*[#   2]+0.007*[#   6]
    |psi|^2 = 0.014
==== e(  10) =     7.87104 eV ==== 
 
    |psi|^2 = 0.000
==== e(  11) =     9.35922 eV ==== 
     psi = 0.004*[#   1]+0.004*[#   5]+0.002*[#   3]+0.002*[#   7]
    |psi|^2 = 0.012
==== e(  12) =     9.40603 eV ==== 
 
    |psi|^2 = 0.003

Lowdin Charges: 

     Atom #   1: total charge =   3.9522, s =  0.9097, 
     Atom #   1: total charge =   3.9522, p =  3.0425, pz=  0.9817, px=  1.0331, py=  1.0277, 
     Atom #   2: total charge =   3.9522, s =  0.9097, 
     Atom #   2: total charge =   3.9522, p =  3.0425, pz=  0.9817, px=  1.0331, py=  1.0277, 
     Spilling Parameter:   0.0120
 
     PROJWFC      :      0.33s CPU      0.71s WALL

 
   This run was terminated on:   0:32:48   6Oct2025            

=------------------------------------------------------------------------------=
   JOB DONE.
=------------------------------------------------------------------------------=
