
     Program PROJWFC v.6.5 starts on 17Aug2020 at  8:28:47 

     This program is part of the open-source Quantum ESPRESSO suite
     for quantum simulation of materials; please cite
         "P. Giannozzi et al., J. Phys.:Condens. Matter 21 395502 (2009);
         "P. Giannozzi et al., J. Phys.:Condens. Matter 29 465901 (2017);
          URL http://www.quantum-espresso.org", 
     in publications or presentations arising from this work. More details at
     http://www.quantum-espresso.org/quote

     Parallel version (MPI), running on     1 processors

     MPI processes distributed on     1 nodes

     Reading xml data from directory:

     ./out/aiida.save/

     IMPORTANT: XC functional enforced from input :
     Exchange-correlation= PZ
                           (   1   1   0   0   0   0   0)
     Any further DFT definition will be discarded
     Please, verify this is what you really want

               file Fe.pz-nd-rrkjus.UPF: wavefunction(s)  4S renormalized
 
     G-vector sticks info
     --------------------
     sticks:   dense  smooth     PW     G-vecs:    dense   smooth      PW
     Sum         307     155     55                 3367     1205     249
 
     Generating pointlists ...
     new r_m :   0.3572 (alat units)  1.8637 (a.u.) for type    1

     Check: negative core charge=   -0.000013

     Gaussian broadening (read from input): ngauss,degauss=   0    0.020000


     Calling projwave .... 
 
  Problem Sizes 
  natomwfc =             6
  nbnd     =             8
  nkstot   =            22
  npwx     =           156
  nkb      =            18
 

     Atomic states used for projection
     (read from pseudopotential files):

     state #   1: atom   1 (Fe ), wfc  1 (l=0 m= 1)
     state #   2: atom   1 (Fe ), wfc  2 (l=2 m= 1)
     state #   3: atom   1 (Fe ), wfc  2 (l=2 m= 2)
     state #   4: atom   1 (Fe ), wfc  2 (l=2 m= 3)
     state #   5: atom   1 (Fe ), wfc  2 (l=2 m= 4)
     state #   6: atom   1 (Fe ), wfc  2 (l=2 m= 5)

 k =   0.0625000000  0.0625000000  0.0625000000
==== e(   1) =     5.69764 eV ==== 
     psi = 0.997*[#   1]
    |psi|^2 = 0.998
==== e(   2) =    11.67744 eV ==== 
     psi = 0.333*[#   3]+0.333*[#   4]+0.333*[#   6]
    |psi|^2 = 1.000
==== e(   3) =    11.67744 eV ==== 
     psi = 0.333*[#   3]+0.333*[#   4]+0.333*[#   6]
    |psi|^2 = 1.000
==== e(   4) =    11.90423 eV ==== 
     psi = 0.333*[#   3]+0.333*[#   4]+0.333*[#   6]
    |psi|^2 = 1.000
==== e(   5) =    13.46814 eV ==== 
     psi = 0.499*[#   2]+0.499*[#   5]
    |psi|^2 = 1.000
==== e(   6) =    13.46814 eV ==== 
     psi = 0.499*[#   2]+0.499*[#   5]
    |psi|^2 = 1.000
==== e(   7) =    38.74574 eV ==== 
 
    |psi|^2 = 0.000
==== e(   8) =    38.74575 eV ==== 
 
    |psi|^2 = 0.000

 k =   0.0625000000  0.0625000000  0.1875000000
==== e(   1) =     6.36254 eV ==== 
     psi = 0.986*[#   1]+0.003*[#   2]+0.003*[#   5]+0.002*[#   3]+0.002*[#   4]
          +0.002*[#   6]
    |psi|^2 = 0.998
==== e(   2) =    11.58094 eV ==== 
     psi = 0.331*[#   3]+0.331*[#   4]+0.331*[#   6]+0.003*[#   1]+0.001*[#   2]
          +0.001*[#   5]
    |psi|^2 = 1.000
==== e(   3) =    11.65897 eV ==== 
     psi = 0.327*[#   3]+0.327*[#   4]+0.327*[#   6]+0.010*[#   2]+0.010*[#   5]
          
    |psi|^2 = 1.000
==== e(   4) =    12.20285 eV ==== 
     psi = 0.332*[#   3]+0.332*[#   4]+0.332*[#   6]+0.004*[#   1]
    |psi|^2 = 1.000
==== e(   5) =    13.17271 eV ==== 
     psi = 0.490*[#   2]+0.490*[#   5]+0.006*[#   3]+0.006*[#   4]+0.006*[#   6]
          
    |psi|^2 = 0.999
==== e(   6) =    13.60710 eV ==== 
     psi = 0.496*[#   2]+0.496*[#   5]+0.005*[#   1]+0.001*[#   3]+0.001*[#   4]
          +0.001*[#   6]
    |psi|^2 = 0.999
==== e(   7) =    36.25870 eV ==== 
 
    |psi|^2 = 0.000
==== e(   8) =    37.84454 eV ==== 
 
    |psi|^2 = 0.000

 k =   0.0625000000  0.0625000000  0.3125000000
==== e(   1) =     7.56153 eV ==== 
     psi = 0.915*[#   1]+0.030*[#   2]+0.030*[#   5]+0.007*[#   3]+0.007*[#   4]
          +0.007*[#   6]
    |psi|^2 = 0.998
==== e(   2) =    11.61643 eV ==== 
     psi = 0.328*[#   3]+0.328*[#   4]+0.328*[#   6]+0.015*[#   1]
    |psi|^2 = 1.000
==== e(   3) =    11.64875 eV ==== 
     psi = 0.294*[#   3]+0.294*[#   4]+0.294*[#   6]+0.058*[#   2]+0.058*[#   5]
          
    |psi|^2 = 1.000
==== e(   4) =    12.62120 eV ==== 
     psi = 0.330*[#   3]+0.330*[#   4]+0.330*[#   6]+0.008*[#   1]
    |psi|^2 = 1.000
==== e(   5) =    12.66387 eV ==== 
     psi = 0.441*[#   2]+0.441*[#   5]+0.039*[#   3]+0.039*[#   4]+0.039*[#   6]
          
    |psi|^2 = 0.999
==== e(   6) =    13.86599 eV ==== 
     psi = 0.469*[#   2]+0.469*[#   5]+0.060*[#   1]
    |psi|^2 = 0.999
==== e(   7) =    33.86618 eV ==== 
 
    |psi|^2 = 0.000
==== e(   8) =    35.47917 eV ==== 
 
    |psi|^2 = 0.000

 k =   0.0625000000  0.0625000000  0.4375000000
==== e(   1) =     8.93949 eV ==== 
     psi = 0.667*[#   1]+0.139*[#   2]+0.139*[#   5]+0.018*[#   3]+0.018*[#   4]
          +0.018*[#   6]
    |psi|^2 = 0.998
==== e(   2) =    11.45711 eV ==== 
     psi = 0.320*[#   2]+0.320*[#   5]+0.120*[#   3]+0.120*[#   4]+0.120*[#   6]
          
    |psi|^2 = 1.000
==== e(   3) =    11.83617 eV ==== 
     psi = 0.320*[#   3]+0.320*[#   4]+0.320*[#   6]+0.024*[#   1]+0.008*[#   2]
          +0.008*[#   5]
    |psi|^2 = 1.000
==== e(   4) =    12.31019 eV ==== 
     psi = 0.213*[#   3]+0.213*[#   4]+0.213*[#   6]+0.180*[#   2]+0.180*[#   5]
          
    |psi|^2 = 1.000
==== e(   5) =    13.11645 eV ==== 
     psi = 0.327*[#   3]+0.327*[#   4]+0.327*[#   6]+0.008*[#   2]+0.008*[#   5]
          +0.003*[#   1]
    |psi|^2 = 1.000
==== e(   6) =    14.40857 eV ==== 
     psi = 0.345*[#   2]+0.345*[#   5]+0.302*[#   1]+0.002*[#   3]+0.002*[#   4]
          +0.002*[#   6]
    |psi|^2 = 0.998
==== e(   7) =    31.74047 eV ==== 
 
    |psi|^2 = 0.000
==== e(   8) =    32.71474 eV ==== 
     psi = 0.001*[#   1]
    |psi|^2 = 0.002

 k =   0.0625000000  0.0625000000  0.5625000000
==== e(   1) =     9.84904 eV ==== 
     psi = 0.332*[#   2]+0.332*[#   5]+0.279*[#   1]+0.019*[#   3]+0.019*[#   4]
          +0.019*[#   6]
    |psi|^2 = 0.998
==== e(   2) =    10.80641 eV ==== 
     psi = 0.466*[#   2]+0.466*[#   5]+0.023*[#   3]+0.023*[#   4]+0.023*[#   6]
          
    |psi|^2 = 1.000
==== e(   3) =    12.19350 eV ==== 
     psi = 0.317*[#   3]+0.317*[#   4]+0.317*[#   6]+0.023*[#   2]+0.023*[#   5]
          +0.003*[#   1]
    |psi|^2 = 0.999
==== e(   4) =    12.57540 eV ==== 
     psi = 0.310*[#   3]+0.310*[#   4]+0.310*[#   6]+0.034*[#   2]+0.034*[#   5]
          
    |psi|^2 = 0.999
==== e(   5) =    13.61272 eV ==== 
     psi = 0.326*[#   3]+0.326*[#   4]+0.326*[#   6]+0.010*[#   2]+0.010*[#   5]
          
    |psi|^2 = 0.999
==== e(   6) =    15.81635 eV ==== 
     psi = 0.707*[#   1]+0.135*[#   2]+0.135*[#   5]+0.005*[#   3]+0.005*[#   4]
          +0.005*[#   6]
    |psi|^2 = 0.991
==== e(   7) =    29.62810 eV ==== 
 
    |psi|^2 = 0.000
==== e(   8) =    30.10119 eV ==== 
     psi = 0.007*[#   1]
    |psi|^2 = 0.007

 k =   0.0625000000  0.0625000000  0.6875000000
==== e(   1) =     9.92966 eV ==== 
     psi = 0.461*[#   2]+0.461*[#   5]+0.060*[#   1]+0.005*[#   3]+0.005*[#   4]
          +0.005*[#   6]
    |psi|^2 = 0.998
==== e(   2) =    10.10610 eV ==== 
     psi = 0.490*[#   2]+0.490*[#   5]+0.006*[#   3]+0.006*[#   4]+0.006*[#   6]
          
    |psi|^2 = 1.000
==== e(   3) =    12.72273 eV ==== 
     psi = 0.327*[#   3]+0.327*[#   4]+0.327*[#   6]+0.008*[#   2]+0.008*[#   5]
          +0.002*[#   1]
    |psi|^2 = 0.999
==== e(   4) =    13.17401 eV ==== 
     psi = 0.326*[#   3]+0.326*[#   4]+0.326*[#   6]+0.009*[#   2]+0.009*[#   5]
          
    |psi|^2 = 0.998
==== e(   5) =    14.06656 eV ==== 
     psi = 0.330*[#   3]+0.330*[#   4]+0.330*[#   6]+0.003*[#   2]+0.003*[#   5]
          +0.002*[#   1]
    |psi|^2 = 0.999
==== e(   6) =    18.33626 eV ==== 
     psi = 0.880*[#   1]+0.028*[#   2]+0.028*[#   5]+0.003*[#   3]+0.003*[#   4]
          +0.003*[#   6]
    |psi|^2 = 0.945
==== e(   7) =    27.46333 eV ==== 
 
    |psi|^2 = 0.001
==== e(   8) =    27.74655 eV ==== 
     psi = 0.036*[#   1]
    |psi|^2 = 0.038

 k =   0.0625000000  0.0625000000  0.8125000000
==== e(   1) =     9.56549 eV ==== 
     psi = 0.497*[#   2]+0.497*[#   5]+0.002*[#   3]+0.002*[#   4]+0.002*[#   6]
          
    |psi|^2 = 1.000
==== e(   2) =     9.57290 eV ==== 
     psi = 0.495*[#   2]+0.495*[#   5]+0.006*[#   1]
    |psi|^2 = 0.999
==== e(   3) =    13.43054 eV ==== 
     psi = 0.331*[#   3]+0.331*[#   4]+0.331*[#   6]+0.004*[#   1]
    |psi|^2 = 0.998
==== e(   4) =    13.88666 eV ==== 
     psi = 0.331*[#   3]+0.331*[#   4]+0.331*[#   6]+0.003*[#   2]+0.003*[#   5]
          
    |psi|^2 = 0.997
==== e(   5) =    14.37610 eV ==== 
     psi = 0.332*[#   3]+0.332*[#   4]+0.332*[#   6]+0.001*[#   1]
    |psi|^2 = 0.999
==== e(   6) =    21.51198 eV ==== 
     psi = 0.719*[#   1]+0.003*[#   2]+0.003*[#   5]+0.001*[#   3]+0.001*[#   4]
          +0.001*[#   6]
    |psi|^2 = 0.728
==== e(   7) =    25.57071 eV ==== 
 
    |psi|^2 = 0.002
==== e(   8) =    25.84210 eV ==== 
     psi = 0.181*[#   1]+0.001*[#   3]+0.001*[#   4]+0.001*[#   6]
    |psi|^2 = 0.184

 k =   0.0625000000  0.0625000000  0.9375000000
==== e(   1) =     9.27501 eV ==== 
     psi = 0.500*[#   2]+0.500*[#   5]
    |psi|^2 = 1.000
==== e(   2) =     9.27501 eV ==== 
     psi = 0.500*[#   2]+0.500*[#   5]
    |psi|^2 = 1.000
==== e(   3) =    14.07479 eV ==== 
     psi = 0.332*[#   3]+0.332*[#   4]+0.332*[#   6]+0.002*[#   1]
    |psi|^2 = 0.999
==== e(   4) =    14.41550 eV ==== 
     psi = 0.333*[#   3]+0.333*[#   4]+0.333*[#   6]
    |psi|^2 = 0.999
==== e(   5) =    14.41550 eV ==== 
     psi = 0.333*[#   3]+0.333*[#   4]+0.333*[#   6]
    |psi|^2 = 0.999
==== e(   6) =    24.41573 eV ==== 
 
    |psi|^2 = 0.001
==== e(   7) =    24.41573 eV ==== 
 
    |psi|^2 = 0.001
==== e(   8) =    24.80015 eV ==== 
     psi = 0.679*[#   1]
    |psi|^2 = 0.682

 k =   0.0625000000  0.1875000000  0.1875000000
==== e(   1) =     6.97449 eV ==== 
     psi = 0.954*[#   1]+0.012*[#   3]+0.012*[#   4]+0.012*[#   6]+0.004*[#   2]
          +0.004*[#   5]
    |psi|^2 = 0.998
==== e(   2) =    11.31814 eV ==== 
     psi = 0.331*[#   3]+0.331*[#   4]+0.331*[#   6]+0.003*[#   2]+0.003*[#   5]
          
    |psi|^2 = 1.000
==== e(   3) =    11.56714 eV ==== 
     psi = 0.300*[#   3]+0.300*[#   4]+0.300*[#   6]+0.037*[#   2]+0.037*[#   5]
          +0.027*[#   1]
    |psi|^2 = 1.000
==== e(   4) =    12.67788 eV ==== 
     psi = 0.327*[#   3]+0.327*[#   4]+0.327*[#   6]+0.017*[#   1]
    |psi|^2 = 1.000
==== e(   5) =    13.25389 eV ==== 
     psi = 0.459*[#   2]+0.459*[#   5]+0.027*[#   3]+0.027*[#   4]+0.027*[#   6]
          +0.001*[#   1]
    |psi|^2 = 0.999
==== e(   6) =    13.53015 eV ==== 
     psi = 0.497*[#   2]+0.497*[#   5]+0.002*[#   3]+0.002*[#   4]+0.002*[#   6]
          
    |psi|^2 = 0.999
==== e(   7) =    33.96473 eV ==== 
 
    |psi|^2 = 0.000
==== e(   8) =    36.72727 eV ==== 
 
    |psi|^2 = 0.000

 k =   0.0625000000  0.1875000000  0.3125000000
==== e(   1) =     8.02379 eV ==== 
     psi = 0.815*[#   1]+0.041*[#   3]+0.041*[#   4]+0.041*[#   6]+0.030*[#   2]
          +0.030*[#   5]
    |psi|^2 = 0.998
==== e(   2) =    11.17446 eV ==== 
     psi = 0.328*[#   3]+0.328*[#   4]+0.328*[#   6]+0.007*[#   2]+0.007*[#   5]
          +0.001*[#   1]
    |psi|^2 = 1.000
==== e(   3) =    11.54957 eV ==== 
     psi = 0.236*[#   3]+0.236*[#   4]+0.236*[#   6]+0.107*[#   1]+0.092*[#   2]
          +0.092*[#   5]
    |psi|^2 = 0.999
==== e(   4) =    13.02806 eV ==== 
     psi = 0.388*[#   2]+0.388*[#   5]+0.075*[#   3]+0.075*[#   4]+0.075*[#   6]
          
    |psi|^2 = 0.999
==== e(   5) =    13.23729 eV ==== 
     psi = 0.316*[#   3]+0.316*[#   4]+0.316*[#   6]+0.029*[#   1]+0.012*[#   2]
          +0.012*[#   5]
    |psi|^2 = 0.999
==== e(   6) =    13.75025 eV ==== 
     psi = 0.471*[#   2]+0.471*[#   5]+0.046*[#   1]+0.004*[#   3]+0.004*[#   4]
          +0.004*[#   6]
    |psi|^2 = 0.999
==== e(   7) =    31.17718 eV ==== 
     psi = 0.001*[#   1]
    |psi|^2 = 0.001
==== e(   8) =    34.91367 eV ==== 
 
    |psi|^2 = 0.000

 k =   0.0625000000  0.1875000000  0.4375000000
==== e(   1) =     9.10408 eV ==== 
     psi = 0.484*[#   1]+0.121*[#   2]+0.121*[#   5]+0.091*[#   3]+0.091*[#   4]
          +0.091*[#   6]
    |psi|^2 = 0.997
==== e(   2) =    11.18744 eV ==== 
     psi = 0.275*[#   3]+0.275*[#   4]+0.275*[#   6]+0.085*[#   2]+0.085*[#   5]
          +0.005*[#   1]
    |psi|^2 = 1.000
==== e(   3) =    11.54264 eV ==== 
     psi = 0.200*[#   2]+0.200*[#   5]+0.153*[#   3]+0.153*[#   4]+0.153*[#   6]
          +0.139*[#   1]
    |psi|^2 = 0.997
==== e(   4) =    12.85227 eV ==== 
     psi = 0.245*[#   2]+0.245*[#   5]+0.165*[#   3]+0.165*[#   4]+0.165*[#   6]
          +0.015*[#   1]
    |psi|^2 = 0.999
==== e(   5) =    13.69855 eV ==== 
     psi = 0.280*[#   3]+0.280*[#   4]+0.280*[#   6]+0.080*[#   2]+0.080*[#   5]
          
    |psi|^2 = 0.999
==== e(   6) =    14.46494 eV ==== 
     psi = 0.347*[#   1]+0.269*[#   2]+0.269*[#   5]+0.036*[#   3]+0.036*[#   4]
          +0.036*[#   6]
    |psi|^2 = 0.994
==== e(   7) =    28.62660 eV ==== 
     psi = 0.007*[#   1]
    |psi|^2 = 0.008
==== e(   8) =    32.60514 eV ==== 
     psi = 0.001*[#   1]
    |psi|^2 = 0.002

 k =   0.0625000000  0.0625000000  0.0625000000
==== e(   1) =     6.47091 eV ==== 
     psi = 0.997*[#   1]
    |psi|^2 = 0.997
==== e(   2) =    14.66393 eV ==== 
     psi = 0.332*[#   3]+0.332*[#   4]+0.332*[#   6]+0.001*[#   2]+0.001*[#   5]
          
    |psi|^2 = 0.999
==== e(   3) =    14.66393 eV ==== 
     psi = 0.332*[#   3]+0.332*[#   4]+0.332*[#   6]+0.001*[#   2]+0.001*[#   5]
          
    |psi|^2 = 0.999
==== e(   4) =    14.92547 eV ==== 
     psi = 0.333*[#   3]+0.333*[#   4]+0.333*[#   6]
    |psi|^2 = 1.000
==== e(   5) =    16.52793 eV ==== 
     psi = 0.498*[#   2]+0.498*[#   5]
    |psi|^2 = 0.999
==== e(   6) =    16.52793 eV ==== 
     psi = 0.498*[#   2]+0.498*[#   5]
    |psi|^2 = 0.999
==== e(   7) =    39.45342 eV ==== 
 
    |psi|^2 = 0.001
==== e(   8) =    39.45343 eV ==== 
 
    |psi|^2 = 0.001

 k =   0.0625000000  0.0625000000  0.1875000000
==== e(   1) =     7.14470 eV ==== 
     psi = 0.989*[#   1]+0.002*[#   2]+0.002*[#   5]+0.001*[#   3]+0.001*[#   4]
          +0.001*[#   6]
    |psi|^2 = 0.997
==== e(   2) =    14.52984 eV ==== 
     psi = 0.331*[#   3]+0.331*[#   4]+0.331*[#   6]+0.002*[#   1]+0.002*[#   2]
          +0.002*[#   5]
    |psi|^2 = 0.999
==== e(   3) =    14.60201 eV ==== 
     psi = 0.323*[#   3]+0.323*[#   4]+0.323*[#   6]+0.015*[#   2]+0.015*[#   5]
          
    |psi|^2 = 0.999
==== e(   4) =    15.25201 eV ==== 
     psi = 0.332*[#   3]+0.332*[#   4]+0.332*[#   6]+0.003*[#   1]
    |psi|^2 = 0.999
==== e(   5) =    16.16253 eV ==== 
     psi = 0.484*[#   2]+0.484*[#   5]+0.010*[#   3]+0.010*[#   4]+0.010*[#   6]
          
    |psi|^2 = 0.998
==== e(   6) =    16.70034 eV ==== 
     psi = 0.496*[#   2]+0.496*[#   5]+0.004*[#   1]+0.002*[#   3]+0.002*[#   4]
          +0.002*[#   6]
    |psi|^2 = 0.999
==== e(   7) =    37.20229 eV ==== 
     psi = 0.001*[#   2]+0.001*[#   5]
    |psi|^2 = 0.003
==== e(   8) =    38.78085 eV ==== 
 
    |psi|^2 = 0.001

 k =   0.0625000000  0.0625000000  0.3125000000
==== e(   1) =     8.38767 eV ==== 
     psi = 0.939*[#   1]+0.022*[#   2]+0.022*[#   5]+0.004*[#   3]+0.004*[#   4]
          +0.004*[#   6]
    |psi|^2 = 0.997
==== e(   2) =    14.49617 eV ==== 
     psi = 0.272*[#   3]+0.272*[#   4]+0.272*[#   6]+0.090*[#   2]+0.090*[#   5]
          
    |psi|^2 = 0.997
==== e(   3) =    14.51905 eV ==== 
     psi = 0.329*[#   3]+0.329*[#   4]+0.329*[#   6]+0.010*[#   1]
    |psi|^2 = 0.998
==== e(   4) =    15.56118 eV ==== 
     psi = 0.408*[#   2]+0.408*[#   5]+0.060*[#   3]+0.060*[#   4]+0.060*[#   6]
          
    |psi|^2 = 0.997
==== e(   5) =    15.71337 eV ==== 
     psi = 0.331*[#   3]+0.331*[#   4]+0.331*[#   6]+0.005*[#   1]
    |psi|^2 = 0.999
==== e(   6) =    16.97348 eV ==== 
     psi = 0.477*[#   2]+0.477*[#   5]+0.043*[#   1]
    |psi|^2 = 1.000
==== e(   7) =    35.04951 eV ==== 
     psi = 0.002*[#   2]+0.002*[#   5]
    |psi|^2 = 0.005
==== e(   8) =    36.64256 eV ==== 
 
    |psi|^2 = 0.003

 k =   0.0625000000  0.0625000000  0.4375000000
==== e(   1) =     9.94199 eV ==== 
     psi = 0.767*[#   1]+0.101*[#   2]+0.101*[#   5]+0.010*[#   3]+0.010*[#   4]
          +0.010*[#   6]
    |psi|^2 = 0.997
==== e(   2) =    14.08286 eV ==== 
     psi = 0.356*[#   2]+0.356*[#   5]+0.094*[#   3]+0.094*[#   4]+0.094*[#   6]
          
    |psi|^2 = 0.993
==== e(   3) =    14.70527 eV ==== 
     psi = 0.325*[#   3]+0.325*[#   4]+0.325*[#   6]+0.016*[#   1]+0.002*[#   2]
          +0.002*[#   5]
    |psi|^2 = 0.996
==== e(   4) =    15.22756 eV ==== 
     psi = 0.238*[#   3]+0.238*[#   4]+0.238*[#   6]+0.141*[#   2]+0.141*[#   5]
          
    |psi|^2 = 0.997
==== e(   5) =    16.27292 eV ==== 
     psi = 0.329*[#   3]+0.329*[#   4]+0.329*[#   6]+0.004*[#   2]+0.004*[#   5]
          +0.002*[#   1]
    |psi|^2 = 0.999
==== e(   6) =    17.35667 eV ==== 
     psi = 0.393*[#   2]+0.393*[#   5]+0.210*[#   1]+0.001*[#   3]+0.001*[#   4]
          +0.001*[#   6]
    |psi|^2 = 0.999
==== e(   7) =    33.15413 eV ==== 
     psi = 0.002*[#   2]+0.002*[#   5]
    |psi|^2 = 0.006
==== e(   8) =    34.00154 eV ==== 
     psi = 0.002*[#   1]+0.001*[#   3]+0.001*[#   4]+0.001*[#   6]
    |psi|^2 = 0.006

 k =   0.0625000000  0.0625000000  0.5625000000
==== e(   1) =    11.28971 eV ==== 
     psi = 0.430*[#   1]+0.265*[#   2]+0.265*[#   5]+0.012*[#   3]+0.012*[#   4]
          +0.012*[#   6]
    |psi|^2 = 0.995
==== e(   2) =    13.24444 eV ==== 
     psi = 0.464*[#   2]+0.464*[#   5]+0.022*[#   3]+0.022*[#   4]+0.022*[#   6]
          
    |psi|^2 = 0.993
==== e(   3) =    15.08763 eV ==== 
     psi = 0.320*[#   3]+0.320*[#   4]+0.320*[#   6]+0.015*[#   2]+0.015*[#   5]
          +0.002*[#   1]
    |psi|^2 = 0.993
==== e(   4) =    15.52668 eV ==== 
     psi = 0.310*[#   3]+0.310*[#   4]+0.310*[#   6]+0.033*[#   2]+0.033*[#   5]
          
    |psi|^2 = 0.994
==== e(   5) =    16.84108 eV ==== 
     psi = 0.324*[#   3]+0.324*[#   4]+0.324*[#   6]+0.012*[#   2]+0.012*[#   5]
          +0.003*[#   1]
    |psi|^2 = 0.999
==== e(   6) =    18.23916 eV ==== 
     psi = 0.554*[#   1]+0.207*[#   2]+0.207*[#   5]+0.008*[#   3]+0.008*[#   4]
          +0.008*[#   6]
    |psi|^2 = 0.993
==== e(   7) =    31.14877 eV ==== 
     psi = 0.002*[#   3]+0.002*[#   4]+0.002*[#   6]+0.001*[#   2]+0.001*[#   5]
          
    |psi|^2 = 0.008
==== e(   8) =    31.46300 eV ==== 
     psi = 0.008*[#   1]+0.002*[#   3]+0.002*[#   4]+0.002*[#   6]
    |psi|^2 = 0.014

 k =   0.0625000000  0.0625000000  0.6875000000
==== e(   1) =    11.83336 eV ==== 
     psi = 0.424*[#   2]+0.424*[#   5]+0.130*[#   1]+0.005*[#   3]+0.005*[#   4]
          +0.005*[#   6]
    |psi|^2 = 0.992
==== e(   2) =    12.40937 eV ==== 
     psi = 0.487*[#   2]+0.487*[#   5]+0.007*[#   3]+0.007*[#   4]+0.007*[#   6]
          
    |psi|^2 = 0.993
==== e(   3) =    15.67534 eV ==== 
     psi = 0.323*[#   3]+0.323*[#   4]+0.323*[#   6]+0.009*[#   2]+0.009*[#   5]
          +0.005*[#   1]
    |psi|^2 = 0.991
==== e(   4) =    16.20084 eV ==== 
     psi = 0.323*[#   3]+0.323*[#   4]+0.323*[#   6]+0.010*[#   2]+0.010*[#   5]
          
    |psi|^2 = 0.990
==== e(   5) =    17.36103 eV ==== 
     psi = 0.328*[#   3]+0.328*[#   4]+0.328*[#   6]+0.007*[#   1]+0.005*[#   2]
          +0.005*[#   5]
    |psi|^2 = 0.999
==== e(   6) =    20.15330 eV ==== 
     psi = 0.805*[#   1]+0.062*[#   2]+0.062*[#   5]+0.007*[#   3]+0.007*[#   4]
          +0.007*[#   6]
    |psi|^2 = 0.950
==== e(   7) =    28.91387 eV ==== 
     psi = 0.003*[#   3]+0.003*[#   4]+0.003*[#   6]
    |psi|^2 = 0.012
==== e(   8) =    29.07934 eV ==== 
     psi = 0.036*[#   1]+0.004*[#   3]+0.004*[#   4]+0.004*[#   6]
    |psi|^2 = 0.048

 k =   0.0625000000  0.0625000000  0.8125000000
==== e(   1) =    11.68580 eV ==== 
     psi = 0.486*[#   2]+0.486*[#   5]+0.018*[#   1]+0.001*[#   3]+0.001*[#   4]
          +0.001*[#   6]
    |psi|^2 = 0.992
==== e(   2) =    11.77756 eV ==== 
     psi = 0.494*[#   2]+0.494*[#   5]+0.002*[#   3]+0.002*[#   4]+0.002*[#   6]
          
    |psi|^2 = 0.994
==== e(   3) =    16.50706 eV ==== 
     psi = 0.326*[#   3]+0.326*[#   4]+0.326*[#   6]+0.012*[#   1]+0.001*[#   2]
          +0.001*[#   5]
    |psi|^2 = 0.993
==== e(   4) =    17.06445 eV ==== 
     psi = 0.327*[#   3]+0.327*[#   4]+0.327*[#   6]+0.003*[#   2]+0.003*[#   5]
          
    |psi|^2 = 0.988
==== e(   5) =    17.72557 eV ==== 
     psi = 0.331*[#   3]+0.331*[#   4]+0.331*[#   6]+0.004*[#   1]+0.001*[#   2]
          +0.001*[#   5]
    |psi|^2 = 1.000
==== e(   6) =    22.91670 eV ==== 
     psi = 0.703*[#   1]+0.011*[#   2]+0.011*[#   5]+0.003*[#   3]+0.003*[#   4]
          +0.003*[#   6]
    |psi|^2 = 0.734
==== e(   7) =    26.84465 eV ==== 
     psi = 0.004*[#   3]+0.004*[#   4]+0.004*[#   6]
    |psi|^2 = 0.013
==== e(   8) =    27.04586 eV ==== 
     psi = 0.179*[#   1]+0.005*[#   3]+0.005*[#   4]+0.005*[#   6]
    |psi|^2 = 0.194

 k =   0.0625000000  0.0625000000  0.9375000000
==== e(   1) =    11.44147 eV ==== 
     psi = 0.497*[#   2]+0.497*[#   5]
    |psi|^2 = 0.995
==== e(   2) =    11.44147 eV ==== 
     psi = 0.497*[#   2]+0.497*[#   5]
    |psi|^2 = 0.995
==== e(   3) =    17.32215 eV ==== 
     psi = 0.330*[#   3]+0.330*[#   4]+0.330*[#   6]+0.008*[#   1]
    |psi|^2 = 0.997
==== e(   4) =    17.76636 eV ==== 
     psi = 0.332*[#   3]+0.332*[#   4]+0.332*[#   6]
    |psi|^2 = 0.997
==== e(   5) =    17.76636 eV ==== 
     psi = 0.332*[#   3]+0.332*[#   4]+0.332*[#   6]
    |psi|^2 = 0.997
==== e(   6) =    25.50010 eV ==== 
     psi = 0.001*[#   3]+0.001*[#   4]+0.001*[#   6]
    |psi|^2 = 0.005
==== e(   7) =    25.50010 eV ==== 
     psi = 0.001*[#   3]+0.001*[#   4]+0.001*[#   6]
    |psi|^2 = 0.005
==== e(   8) =    25.85369 eV ==== 
     psi = 0.673*[#   1]+0.004*[#   3]+0.004*[#   4]+0.004*[#   6]
    |psi|^2 = 0.684

 k =   0.0625000000  0.1875000000  0.1875000000
==== e(   1) =     7.77990 eV ==== 
     psi = 0.968*[#   1]+0.008*[#   3]+0.008*[#   4]+0.008*[#   6]+0.003*[#   2]
          +0.003*[#   5]
    |psi|^2 = 0.997
==== e(   2) =    14.21794 eV ==== 
     psi = 0.330*[#   3]+0.330*[#   4]+0.330*[#   6]+0.004*[#   2]+0.004*[#   5]
          
    |psi|^2 = 0.999
==== e(   3) =    14.40476 eV ==== 
     psi = 0.292*[#   3]+0.292*[#   4]+0.292*[#   6]+0.052*[#   2]+0.052*[#   5]
          +0.018*[#   1]
    |psi|^2 = 0.997
==== e(   4) =    15.77028 eV ==== 
     psi = 0.329*[#   3]+0.329*[#   4]+0.329*[#   6]+0.011*[#   1]+0.001*[#   2]
          +0.001*[#   5]
    |psi|^2 = 0.999
==== e(   5) =    16.29012 eV ==== 
     psi = 0.443*[#   2]+0.443*[#   5]+0.037*[#   3]+0.037*[#   4]+0.037*[#   6]
          
    |psi|^2 = 0.999
==== e(   6) =    16.61032 eV ==== 
     psi = 0.495*[#   2]+0.495*[#   5]+0.003*[#   3]+0.003*[#   4]+0.003*[#   6]
          
    |psi|^2 = 0.999
==== e(   7) =    35.14988 eV ==== 
     psi = 0.001*[#   2]+0.001*[#   5]
    |psi|^2 = 0.004
==== e(   8) =    37.60106 eV ==== 
 
    |psi|^2 = 0.002

 k =   0.0625000000  0.1875000000  0.3125000000
==== e(   1) =     8.92758 eV ==== 
     psi = 0.884*[#   1]+0.024*[#   3]+0.024*[#   4]+0.024*[#   6]+0.020*[#   2]
          +0.020*[#   5]
    |psi|^2 = 0.997
==== e(   2) =    14.01904 eV ==== 
     psi = 0.321*[#   3]+0.321*[#   4]+0.321*[#   6]+0.017*[#   2]+0.017*[#   5]
          
    |psi|^2 = 0.998
==== e(   3) =    14.19106 eV ==== 
     psi = 0.237*[#   3]+0.237*[#   4]+0.237*[#   6]+0.108*[#   2]+0.108*[#   5]
          +0.065*[#   1]
    |psi|^2 = 0.993
==== e(   4) =    16.04518 eV ==== 
     psi = 0.368*[#   2]+0.368*[#   5]+0.087*[#   3]+0.087*[#   4]+0.087*[#   6]
          
    |psi|^2 = 0.998
==== e(   5) =    16.38360 eV ==== 
     psi = 0.324*[#   3]+0.324*[#   4]+0.324*[#   6]+0.019*[#   1]+0.004*[#   2]
          +0.004*[#   5]
    |psi|^2 = 0.998
==== e(   6) =    16.84885 eV ==== 
     psi = 0.480*[#   2]+0.480*[#   5]+0.027*[#   1]+0.004*[#   3]+0.004*[#   4]
          +0.004*[#   6]
    |psi|^2 = 0.999
==== e(   7) =    32.55651 eV ==== 
     psi = 0.002*[#   1]+0.001*[#   2]+0.001*[#   5]+0.001*[#   3]+0.001*[#   4]
          +0.001*[#   6]
    |psi|^2 = 0.008
==== e(   8) =    35.90577 eV ==== 
 
    |psi|^2 = 0.002

 k =   0.0625000000  0.1875000000  0.4375000000
==== e(   1) =    10.30603 eV ==== 
     psi = 0.660*[#   1]+0.091*[#   2]+0.091*[#   5]+0.051*[#   3]+0.051*[#   4]
          +0.051*[#   6]
    |psi|^2 = 0.996
==== e(   2) =    13.79340 eV ==== 
     psi = 0.240*[#   2]+0.240*[#   5]+0.153*[#   3]+0.153*[#   4]+0.153*[#   6]
          +0.050*[#   1]
    |psi|^2 = 0.989
==== e(   3) =    14.14330 eV ==== 
     psi = 0.298*[#   3]+0.298*[#   4]+0.298*[#   6]+0.045*[#   1]+0.028*[#   2]
          +0.028*[#   5]
    |psi|^2 = 0.994
==== e(   4) =    15.83639 eV ==== 
     psi = 0.234*[#   2]+0.234*[#   5]+0.172*[#   3]+0.172*[#   4]+0.172*[#   6]
          +0.013*[#   1]
    |psi|^2 = 0.997
==== e(   5) =    16.92210 eV ==== 
     psi = 0.266*[#   3]+0.266*[#   4]+0.266*[#   6]+0.100*[#   2]+0.100*[#   5]
          +0.002*[#   1]
    |psi|^2 = 0.999
==== e(   6) =    17.36351 eV ==== 
     psi = 0.305*[#   2]+0.305*[#   5]+0.216*[#   1]+0.056*[#   3]+0.056*[#   4]
          +0.056*[#   6]
    |psi|^2 = 0.995
==== e(   7) =    30.16192 eV ==== 
     psi = 0.010*[#   1]+0.002*[#   3]+0.002*[#   4]+0.002*[#   6]+0.002*[#   2]
          +0.002*[#   5]
    |psi|^2 = 0.020
==== e(   8) =    33.80289 eV ==== 
     psi = 0.002*[#   1]
    |psi|^2 = 0.005

Lowdin Charges: 

     Atom #   1: total charge =   7.9828, s =  1.3216, p =  0.0000, d =  6.6612, 
                 spin up      =   5.5826, s =  0.6734, 
                 spin up      =   5.5826, p =  0.0000, pz=  0.0000, px=  0.0000, py=  0.0000, 
                 spin up      =   5.5826, d =  4.9091, dz2=  0.9814, dxz=  0.9821, dyz=  0.9821, dx2-y2=  0.9814, dxy=  0.9821, 
                 spin down    =   2.4002, s =  0.6482, 
                 spin down    =   2.4002, p =  0.0000, pz=  0.0000, px=  0.0000, py=  0.0000, 
                 spin down    =   2.4002, d =  1.7520, dz2=  0.4245, dxz=  0.3010, dyz=  0.3010, dx2-y2=  0.4245, dxy=  0.3010, 
                 polarization =   3.1824, s =  0.0252, p =  0.0000, d =  3.1571, 
     Spilling Parameter:   0.0022
 
     PROJWFC      :      1.13s CPU      1.27s WALL

 
   This run was terminated on:   8:28:49  17Aug2020            

=------------------------------------------------------------------------------=
   JOB DONE.
=------------------------------------------------------------------------------=
