
     Program PROJWFC v.6.5 starts on 15Sep2020 at  9:15:33 

     This program is part of the open-source Quantum ESPRESSO suite
     for quantum simulation of materials; please cite
         "P. Giannozzi et al., J. Phys.:Condens. Matter 21 395502 (2009);
         "P. Giannozzi et al., J. Phys.:Condens. Matter 29 465901 (2017);
          URL http://www.quantum-espresso.org", 
     in publications or presentations arising from this work. More details at
     http://www.quantum-espresso.org/quote

     Parallel version (MPI), running on     1 processors

     MPI processes distributed on     1 nodes

     Reading xml data from directory:

     ./out/aiida.save/

     IMPORTANT: XC functional enforced from input :
     Exchange-correlation= PZ
                           (   1   1   0   0   0   0   0)
     Any further DFT definition will be discarded
     Please, verify this is what you really want

               file Fe.pz-nd-rrkjus.UPF: wavefunction(s)  4S renormalized
 
     G-vector sticks info
     --------------------
     sticks:   dense  smooth     PW     G-vecs:    dense   smooth      PW
     Sum         307     155     37                 3367     1205     141
 
     Generating pointlists ...
     new r_m :   0.3572 (alat units)  1.8637 (a.u.) for type    1

     Check: negative core charge=   -0.000013

     Gaussian broadening (read from input): ngauss,degauss=   0    0.020000


     Calling projwave .... 
 
  Problem Sizes 
  natomwfc =             6
  nbnd     =             8
  nkstot   =             2
  npwx     =           141
  nkb      =            18
 

     Atomic states used for projection
     (read from pseudopotential files):

     state #   1: atom   1 (Fe ), wfc  1 (l=0 m= 1)
     state #   2: atom   1 (Fe ), wfc  2 (l=2 m= 1)
     state #   3: atom   1 (Fe ), wfc  2 (l=2 m= 2)
     state #   4: atom   1 (Fe ), wfc  2 (l=2 m= 3)
     state #   5: atom   1 (Fe ), wfc  2 (l=2 m= 4)
     state #   6: atom   1 (Fe ), wfc  2 (l=2 m= 5)

 k =   0.0000000000  0.0000000000  0.0000000000
==== e(   1) =     5.27583 eV ==== 
     psi = 0.998*[#   1]
    |psi|^2 = 0.998
==== e(   2) =    11.64164 eV ==== 
     psi = 0.333*[#   3]+0.333*[#   4]+0.333*[#   6]
    |psi|^2 = 1.000
==== e(   3) =    11.64165 eV ==== 
     psi = 0.333*[#   3]+0.333*[#   4]+0.333*[#   6]
    |psi|^2 = 1.000
==== e(   4) =    11.64165 eV ==== 
     psi = 0.333*[#   3]+0.333*[#   4]+0.333*[#   6]
    |psi|^2 = 1.000
==== e(   5) =    13.00997 eV ==== 
     psi = 0.500*[#   2]+0.500*[#   5]
    |psi|^2 = 1.000
==== e(   6) =    13.00997 eV ==== 
     psi = 0.500*[#   2]+0.500*[#   5]
    |psi|^2 = 1.000
==== e(   7) =    39.61097 eV ==== 
 
    |psi|^2 = 0.000
==== e(   8) =    39.61107 eV ==== 
 
    |psi|^2 = 0.000

 k =   0.0000000000  0.0000000000  0.0000000000
==== e(   1) =     6.42847 eV ==== 
     psi = 0.997*[#   1]
    |psi|^2 = 0.997
==== e(   2) =    15.07636 eV ==== 
     psi = 0.333*[#   3]+0.333*[#   4]+0.333*[#   6]
    |psi|^2 = 1.000
==== e(   3) =    15.07636 eV ==== 
     psi = 0.333*[#   3]+0.333*[#   4]+0.333*[#   6]
    |psi|^2 = 1.000
==== e(   4) =    15.07636 eV ==== 
     psi = 0.333*[#   3]+0.333*[#   4]+0.333*[#   6]
    |psi|^2 = 1.000
==== e(   5) =    17.27260 eV ==== 
     psi = 0.500*[#   2]+0.500*[#   5]
    |psi|^2 = 0.999
==== e(   6) =    17.27260 eV ==== 
     psi = 0.500*[#   2]+0.500*[#   5]
    |psi|^2 = 0.999
==== e(   7) =    40.43174 eV ==== 
 
    |psi|^2 = 0.000
==== e(   8) =    40.43179 eV ==== 
 
    |psi|^2 = 0.000

Lowdin Charges: 

     Atom #   1: total charge =   7.9931, s =  1.9953, p =  0.0000, d =  5.9978, 
                 spin up      =   6.0004, s =  0.9982, 
                 spin up      =   6.0004, p =  0.0000, pz=  0.0000, px=  0.0000, py=  0.0000, 
                 spin up      =   6.0004, d =  5.0023, dz2=  1.0015, dxz=  0.9998, dyz=  0.9998, dx2-y2=  1.0015, dxy=  0.9998, 
                 spin down    =   1.9927, s =  0.9971, 
                 spin down    =   1.9927, p =  0.0000, pz=  0.0000, px=  0.0000, py=  0.0000, 
                 spin down    =   1.9927, d =  0.9955, dz2=  0.0000, dxz=  0.3318, dyz=  0.3318, dx2-y2=  0.0000, dxy=  0.3318, 
                 polarization =   4.0078, s =  0.0010, p =  0.0000, d =  4.0067, 
     Spilling Parameter:   0.0009
 
     PROJWFC      :      1.10s CPU      1.25s WALL

 
   This run was terminated on:   9:15:34  15Sep2020            

=------------------------------------------------------------------------------=
   JOB DONE.
=------------------------------------------------------------------------------=
