
     Program PW2WANNIER v.6.4.1 starts on  8May2019 at 11:51:47

     This program is part of the open-source Quantum ESPRESSO suite
     for quantum simulation of materials; please cite
         "P. Giannozzi et al., J. Phys.:Condens. Matter 21 395502 (2009);
         "P. Giannozzi et al., J. Phys.:Condens. Matter 29 465901 (2017);
          URL http://www.quantum-espresso.org",
     in publications or presentations arising from this work. More details at
     http://www.quantum-espresso.org/quote

     Parallel version (MPI), running on     8 processors

     MPI processes distributed on     1 nodes
     R & G space division:  proc/nbgrp/npool/nimage =       8

  Reading nscf_save data

     Reading data from directory:
     ./out/aiida.save/
     Message from routine volume:
     axis vectors are left-handed
     Message from routine volume:
     axis vectors are left-handed

     IMPORTANT: XC functional enforced from input :
     Exchange-correlation      = PBE ( 1  4  3  4 0 0)
     Any further DFT definition will be discarded
     Please, verify this is what you really want

               file In.pbe-dn-rrkjus_psl.0.2.2.UPF: wavefunction(s)  5S renormalized

     Parallelization info
     --------------------
     sticks:   dense  smooth     PW     G-vecs:    dense   smooth      PW
     Min         144      72     23                25475     9012    1653
     Max         146      73     24                25488     9027    1674
     Sum        1159     583    187               203827    72181   13313

 ----2D----2D----2D----2D----2D----2D----2D----2D----2D----2D----2D----2D
  The code is running with the 2D cutoff
  Please refer to:
  Sohier, T., Calandra, M., & Mauri, F. (2017),
  Density functional perturbation theory for gated two-dimensional heterostructures:
  Theoretical developments and application to flexural phonons in graphene.
  Physical Review B, 96(7), 75448. https://doi.org/10.1103/PhysRevB.96.075448
 ----2D----2D----2D----2D----2D----2D----2D----2D----2D----2D----2D----2D

     Check: negative core charge=   -0.000001

     negative rho (up, down):  1.376E-04 0.000E+00

  Spin CASE ( default = unpolarized )

  Wannier mode is: standalone

  -----------------
  *** Reading nnkp
  -----------------

  Checking info from wannier.nnkp file

  - Real lattice is ok
  - Reciprocal lattice is ok
  - K-points are ok
  - Number of wannier functions is ok ( 22)

 Projections:

  Reading data about k-point neighbours

  All neighbours are found

  Opening pp-files


  -----------------------------
  *** A matrix is not computed
  -----------------------------

  -----------------------------
  *** M matrix is not computed
  -----------------------------

  -----------------------------------
  *** Orbital terms are not computed
  -----------------------------------

  ----------------
  *** Write bands
  ----------------


  -----------------------------
  *** Plot info is not printed
  -----------------------------

  -----------------------------
  *** Parity info is not printed
  -----------------------------

  ------------
  *** Stop pp
  ------------


     init_pw2wan  :      2.04s CPU      2.18s WALL (       1 calls)

     PW2WANNIER   :      2.04s CPU      2.18s WALL


   This run was terminated on:  11:51:49   8May2019

=------------------------------------------------------------------------------=
   JOB DONE.
=------------------------------------------------------------------------------=
