
     Program PWSCF v.7.5 starts on  3Jun2026 at 15:32:52 
        Git branch: adaptive_line_search
        Last git commit: 086c1ae4ecd3bd1dec9b37a7d54104901cf42a3c
        Last git commit date: Fri Feb 13 15:39:09 2026 +0100
        Last git commit subject: Updated linesearch algorithm, Fixed the call of sc

     This program is part of the open-source Quantum ESPRESSO suite
     for quantum simulation of materials; please cite
         "P. Giannozzi et al., J. Phys.:Condens. Matter 21 395502 (2009);
         "P. Giannozzi et al., J. Phys.:Condens. Matter 29 465901 (2017);
         "P. Giannozzi et al., J. Chem. Phys. 152 154105 (2020);
          URL http://www.quantum-espresso.org", 
     in publications or presentations arising from this work. More details at
     http://www.quantum-espresso.org/quote

     Parallel version (MPI & OpenMP), running on      96 processor cores
     Number of MPI processes:                 4
     Threads/MPI process:                    24

     MPI processes distributed on     1 nodes
     839716 MiB available memory on the printing compute node when the environment starts
 
     Reading input from aiida.in

     Current dimensions of program PWSCF are:
     Max number of different atomic species (ntypx) = 10
     Max number of k-points (npk) =  40000
     Max angular momentum in pseudopotentials (lmaxx) =  4
     Message from routine setup:
     using ibrav=0 with symmetry is DISCOURAGED, use correct ibrav instead
 
     K-points division:     npool     =       4
     Subspace diagonalization in iterative solution of the eigenvalue problem:
     a serial algorithm will be used

 
     G-vector sticks info
     --------------------
     sticks:   dense  smooth     PW     G-vecs:    dense   smooth      PW
     Sum        1333    1333    379                67167    67167    9971
 
     Using Slab Decomposition
 


     bravais-lattice index     =            0
     lattice parameter (alat)  =       7.5795  a.u.
     unit-cell volume          =     645.9751 (a.u.)^3
     number of atoms/cell      =            3
     number of atomic types    =            2
     number of electrons       =        34.00
     number of Kohn-Sham states=           21
     kinetic-energy cutoff     =      84.0000  Ry
     charge density cutoff     =     336.0000  Ry
     scf convergence threshold =      3.0E-08
     mixing beta               =       0.4000
     number of iterations used =            8  plain     mixing
     Exchange-correlation= PBESOL
                           (   1   4  10   8   0   0   0)

     GPU acceleration is ACTIVE.  1 visible GPUs per MPI rank
     GPU-aware MPI enabled

     Message from routine print_cuda_info:
     High GPU oversubscription detected. Are you sure this is what you want?

     GPU used by master process:

        Device Number: 0
        Device name: NVIDIA GH200 120GB
        Compute capability : 90
        Ratio of single to double precision performance  : 2
        Memory Clock Rate (KHz): 2619000
        Memory Bus Width (bits): 6144
        Peak Memory Bandwidth (GB/s): ******

     celldm(1)=   7.579461  celldm(2)=   0.000000  celldm(3)=   0.000000
     celldm(4)=   0.000000  celldm(5)=   0.000000  celldm(6)=   0.000000

     crystal axes: (cart. coord. in units of alat)
               a(1) = (   1.000000   0.000000   0.000000 )  
               a(2) = (  -0.500000   0.866025   0.000000 )  
               a(3) = (   0.000000   0.000000   1.713051 )  

     reciprocal axes: (cart. coord. in units 2 pi/alat)
               b(1) = (  1.000000  0.577350 -0.000000 )  
               b(2) = (  0.000000  1.154701  0.000000 )  
               b(3) = (  0.000000 -0.000000  0.583754 )  


     PseudoPot. # 1 for I  read from file:
     ./pseudo/I.upf
     MD5 check sum: e22ff10861411e5f8d51de364fee62ed
     Pseudo is Norm-conserving + core correction, Zval =  7.0
     Generated using ONCVPSP code by D. R. Hamann
     Using radial grid of 1210 points,  6 beta functions with: 
                l(1) =   0
                l(2) =   0
                l(3) =   1
                l(4) =   1
                l(5) =   2
                l(6) =   2

     PseudoPot. # 2 for Zn read from file:
     ./pseudo/Zn.upf
     MD5 check sum: 4736ca5057ecd586be92fdab05acd4e4
     Pseudo is Norm-conserving + core correction, Zval = 20.0
     Generated using ONCVPSP code by D. R. Hamann
     Using radial grid of 1312 points,  6 beta functions with: 
                l(1) =   0
                l(2) =   0
                l(3) =   1
                l(4) =   1
                l(5) =   2
                l(6) =   2

     atomic species   valence    mass     pseudopotential
     I                 7.00   126.90447     I ( 1.00)
     Zn               20.00    65.38000     Zn( 1.00)

     Starting magnetic structure 
     atomic species   magnetization
     I               0.100
     Zn              0.100

     12 Sym. Ops., with inversion, found


                                    s                        frac. trans.

      isym =  1     identity                                     

 cryst.   s( 1) = (     1          0          0      )
                  (     0          1          0      )
                  (     0          0          1      )

 cart.    s( 1) = (  1.0000000  0.0000000  0.0000000 )
                  (  0.0000000  1.0000000  0.0000000 )
                  (  0.0000000  0.0000000  1.0000000 )


      isym =  2     180 deg rotation - cart. axis [1,0,0]        

 cryst.   s( 2) = (     1          0          0      )
                  (    -1         -1          0      )
                  (     0          0         -1      )

 cart.    s( 2) = (  1.0000000  0.0000000  0.0000000 )
                  (  0.0000000 -1.0000000  0.0000000 )
                  (  0.0000000  0.0000000 -1.0000000 )


      isym =  3     120 deg rotation - cryst. axis [0,0,1]       

 cryst.   s( 3) = (     0          1          0      )
                  (    -1         -1          0      )
                  (     0          0          1      )

 cart.    s( 3) = ( -0.5000000 -0.8660254  0.0000000 )
                  (  0.8660254 -0.5000000  0.0000000 )
                  (  0.0000000  0.0000000  1.0000000 )


      isym =  4     120 deg rotation - cryst. axis [0,0,-1]      

 cryst.   s( 4) = (    -1         -1          0      )
                  (     1          0          0      )
                  (     0          0          1      )

 cart.    s( 4) = ( -0.5000000  0.8660254  0.0000000 )
                  ( -0.8660254 -0.5000000  0.0000000 )
                  (  0.0000000  0.0000000  1.0000000 )


      isym =  5     180 deg rotation - cryst. axis [0,1,0]       

 cryst.   s( 5) = (    -1         -1          0      )
                  (     0          1          0      )
                  (     0          0         -1      )

 cart.    s( 5) = ( -0.5000000 -0.8660254  0.0000000 )
                  ( -0.8660254  0.5000000  0.0000000 )
                  (  0.0000000  0.0000000 -1.0000000 )


      isym =  6     180 deg rotation - cryst. axis [1,1,0]       

 cryst.   s( 6) = (     0          1          0      )
                  (     1          0          0      )
                  (     0          0         -1      )

 cart.    s( 6) = ( -0.5000000  0.8660254  0.0000000 )
                  (  0.8660254  0.5000000  0.0000000 )
                  (  0.0000000  0.0000000 -1.0000000 )


      isym =  7     inversion                                    

 cryst.   s( 7) = (    -1          0          0      )
                  (     0         -1          0      )
                  (     0          0         -1      )

 cart.    s( 7) = ( -1.0000000  0.0000000  0.0000000 )
                  (  0.0000000 -1.0000000  0.0000000 )
                  (  0.0000000  0.0000000 -1.0000000 )


      isym =  8     inv. 180 deg rotation - cart. axis [1,0,0]   

 cryst.   s( 8) = (    -1          0          0      )
                  (     1          1          0      )
                  (     0          0          1      )

 cart.    s( 8) = ( -1.0000000  0.0000000  0.0000000 )
                  (  0.0000000  1.0000000  0.0000000 )
                  (  0.0000000  0.0000000  1.0000000 )


      isym =  9     inv. 120 deg rotation - cryst. axis [0,0,1]  

 cryst.   s( 9) = (     0         -1          0      )
                  (     1          1          0      )
                  (     0          0         -1      )

 cart.    s( 9) = (  0.5000000  0.8660254  0.0000000 )
                  ( -0.8660254  0.5000000  0.0000000 )
                  (  0.0000000  0.0000000 -1.0000000 )


      isym = 10     inv. 120 deg rotation - cryst. axis [0,0,-1] 

 cryst.   s(10) = (     1          1          0      )
                  (    -1          0          0      )
                  (     0          0         -1      )

 cart.    s(10) = (  0.5000000 -0.8660254  0.0000000 )
                  (  0.8660254  0.5000000  0.0000000 )
                  (  0.0000000  0.0000000 -1.0000000 )


      isym = 11     inv. 180 deg rotation - cryst. axis [0,1,0]  

 cryst.   s(11) = (     1          1          0      )
                  (     0         -1          0      )
                  (     0          0          1      )

 cart.    s(11) = (  0.5000000  0.8660254  0.0000000 )
                  (  0.8660254 -0.5000000  0.0000000 )
                  (  0.0000000  0.0000000  1.0000000 )


      isym = 12     inv. 180 deg rotation - cryst. axis [1,1,0]  

 cryst.   s(12) = (     0         -1          0      )
                  (    -1          0          0      )
                  (     0          0          1      )

 cart.    s(12) = (  0.5000000 -0.8660254  0.0000000 )
                  ( -0.8660254 -0.5000000  0.0000000 )
                  (  0.0000000  0.0000000  1.0000000 )


   Cartesian axes

     site n.     atom                  positions (alat units)
         1        Zn     tau(   1) = (   0.0000000   0.0000000   0.0000000  )
         2        I      tau(   2) = (  -0.0000000   0.5773503   0.4016841  )
         3        I      tau(   3) = (   0.5000000   0.2886751   1.3113665  )

   Crystallographic axes

     site n.     atom                  positions (cryst. coord.)
         1        Zn     tau(   1) = (  0.0000000  0.0000000  0.0000000  )
         2        I      tau(   2) = (  0.3333333  0.6666667  0.2344847  )
         3        I      tau(   3) = (  0.6666667  0.3333333  0.7655153  )

     number of k points=   126  Marzari-Vanderbilt smearing, width (Ry)=  0.0200
                       cart. coord. in units 2pi/alat
        k(    1) = (   0.0000000   0.0000000   0.0000000), wk =   0.0008453
        k(    2) = (   0.0000000   0.0000000   0.0833934), wk =   0.0016906
        k(    3) = (   0.0000000   0.0000000   0.1667868), wk =   0.0016906
        k(    4) = (   0.0000000   0.0000000   0.2501802), wk =   0.0016906
        k(    5) = (   0.0000000   0.0888231   0.0000000), wk =   0.0050719
        k(    6) = (   0.0000000   0.0888231   0.0833934), wk =   0.0050719
        k(    7) = (   0.0000000   0.0888231   0.1667868), wk =   0.0050719
        k(    8) = (   0.0000000   0.0888231   0.2501802), wk =   0.0050719
        k(    9) = (   0.0000000   0.1776462   0.0000000), wk =   0.0050719
        k(   10) = (   0.0000000   0.1776462   0.0833934), wk =   0.0050719
        k(   11) = (   0.0000000   0.1776462   0.1667868), wk =   0.0050719
        k(   12) = (   0.0000000   0.1776462   0.2501802), wk =   0.0050719
        k(   13) = (   0.0000000   0.2664694   0.0000000), wk =   0.0050719
        k(   14) = (   0.0000000   0.2664694   0.0833934), wk =   0.0050719
        k(   15) = (   0.0000000   0.2664694   0.1667868), wk =   0.0050719
        k(   16) = (   0.0000000   0.2664694   0.2501802), wk =   0.0050719
        k(   17) = (   0.0000000   0.3552925   0.0000000), wk =   0.0050719
        k(   18) = (   0.0000000   0.3552925   0.0833934), wk =   0.0050719
        k(   19) = (   0.0000000   0.3552925   0.1667868), wk =   0.0050719
        k(   20) = (   0.0000000   0.3552925   0.2501802), wk =   0.0050719
        k(   21) = (   0.0000000   0.4441156   0.0000000), wk =   0.0050719
        k(   22) = (   0.0000000   0.4441156   0.0833934), wk =   0.0050719
        k(   23) = (   0.0000000   0.4441156   0.1667868), wk =   0.0050719
        k(   24) = (   0.0000000   0.4441156   0.2501802), wk =   0.0050719
        k(   25) = (   0.0000000   0.5329387   0.0000000), wk =   0.0050719
        k(   26) = (   0.0000000   0.5329387   0.0833934), wk =   0.0050719
        k(   27) = (   0.0000000   0.5329387   0.1667868), wk =   0.0050719
        k(   28) = (   0.0000000   0.5329387   0.2501802), wk =   0.0050719
        k(   29) = (   0.0769231   0.1332347   0.0000000), wk =   0.0050719
        k(   30) = (   0.0769231   0.1332347   0.0833934), wk =   0.0101437
        k(   31) = (   0.0769231   0.1332347   0.1667868), wk =   0.0101437
        k(   32) = (   0.0769231   0.1332347   0.2501802), wk =   0.0101437
        k(   33) = (   0.0769231   0.2220578   0.0000000), wk =   0.0101437
        k(   34) = (   0.0769231   0.2220578   0.0833934), wk =   0.0101437
        k(   35) = (   0.0769231   0.2220578   0.1667868), wk =   0.0101437
        k(   36) = (   0.0769231   0.2220578   0.2501802), wk =   0.0101437
        k(   37) = (   0.0769231   0.3108809   0.0000000), wk =   0.0101437
        k(   38) = (   0.0769231   0.3108809   0.0833934), wk =   0.0101437
        k(   39) = (   0.0769231   0.3108809   0.1667868), wk =   0.0101437
        k(   40) = (   0.0769231   0.3108809   0.2501802), wk =   0.0101437
        k(   41) = (   0.0769231   0.3997040   0.0000000), wk =   0.0101437
        k(   42) = (   0.0769231   0.3997040   0.0833934), wk =   0.0101437
        k(   43) = (   0.0769231   0.3997040   0.1667868), wk =   0.0101437
        k(   44) = (   0.0769231   0.3997040   0.2501802), wk =   0.0101437
        k(   45) = (   0.0769231   0.4885272   0.0000000), wk =   0.0101437
        k(   46) = (   0.0769231   0.4885272   0.0833934), wk =   0.0101437
        k(   47) = (   0.0769231   0.4885272   0.1667868), wk =   0.0101437
        k(   48) = (   0.0769231   0.4885272   0.2501802), wk =   0.0101437
        k(   49) = (   0.0769231   0.5773503   0.0000000), wk =   0.0050719
        k(   50) = (   0.0769231   0.5773503   0.0833934), wk =   0.0101437
        k(   51) = (   0.0769231   0.5773503   0.1667868), wk =   0.0101437
        k(   52) = (   0.0769231   0.5773503   0.2501802), wk =   0.0101437
        k(   53) = (   0.1538462   0.2664694   0.0000000), wk =   0.0050719
        k(   54) = (   0.1538462   0.2664694   0.0833934), wk =   0.0101437
        k(   55) = (   0.1538462   0.2664694   0.1667868), wk =   0.0101437
        k(   56) = (   0.1538462   0.2664694   0.2501802), wk =   0.0101437
        k(   57) = (   0.1538462   0.3552925   0.0000000), wk =   0.0101437
        k(   58) = (   0.1538462   0.3552925   0.0833934), wk =   0.0101437
        k(   59) = (   0.1538462   0.3552925   0.1667868), wk =   0.0101437
        k(   60) = (   0.1538462   0.3552925   0.2501802), wk =   0.0101437
        k(   61) = (   0.1538462   0.4441156   0.0000000), wk =   0.0101437
        k(   62) = (   0.1538462   0.4441156   0.0833934), wk =   0.0101437
        k(   63) = (   0.1538462   0.4441156   0.1667868), wk =   0.0101437
        k(   64) = (   0.1538462   0.4441156   0.2501802), wk =   0.0101437
        k(   65) = (   0.1538462   0.5329387   0.0000000), wk =   0.0101437
        k(   66) = (   0.1538462   0.5329387   0.0833934), wk =   0.0101437
        k(   67) = (   0.1538462   0.5329387   0.1667868), wk =   0.0101437
        k(   68) = (   0.1538462   0.5329387   0.2501802), wk =   0.0101437
        k(   69) = (   0.2307692   0.3997040   0.0000000), wk =   0.0050719
        k(   70) = (   0.2307692   0.3997040   0.0833934), wk =   0.0101437
        k(   71) = (   0.2307692   0.3997040   0.1667868), wk =   0.0101437
        k(   72) = (   0.2307692   0.3997040   0.2501802), wk =   0.0101437
        k(   73) = (   0.2307692   0.4885272   0.0000000), wk =   0.0101437
        k(   74) = (   0.2307692   0.4885272   0.0833934), wk =   0.0101437
        k(   75) = (   0.2307692   0.4885272   0.1667868), wk =   0.0101437
        k(   76) = (   0.2307692   0.4885272   0.2501802), wk =   0.0101437
        k(   77) = (   0.2307692   0.5773503   0.0000000), wk =   0.0050719
        k(   78) = (   0.2307692   0.5773503   0.0833934), wk =   0.0101437
        k(   79) = (   0.2307692   0.5773503   0.1667868), wk =   0.0101437
        k(   80) = (   0.2307692   0.5773503   0.2501802), wk =   0.0101437
        k(   81) = (   0.3076923   0.5329387   0.0000000), wk =   0.0050719
        k(   82) = (   0.3076923   0.5329387   0.0833934), wk =   0.0101437
        k(   83) = (   0.3076923   0.5329387   0.1667868), wk =   0.0101437
        k(   84) = (   0.3076923   0.5329387   0.2501802), wk =   0.0101437
        k(   85) = (   0.0000000   0.0888231  -0.0833934), wk =   0.0050719
        k(   86) = (   0.0000000   0.0888231  -0.1667868), wk =   0.0050719
        k(   87) = (   0.0000000   0.0888231  -0.2501802), wk =   0.0050719
        k(   88) = (   0.0000000   0.1776462  -0.0833934), wk =   0.0050719
        k(   89) = (   0.0000000   0.1776462  -0.1667868), wk =   0.0050719
        k(   90) = (   0.0000000   0.1776462  -0.2501802), wk =   0.0050719
        k(   91) = (   0.0000000   0.2664694  -0.0833934), wk =   0.0050719
        k(   92) = (   0.0000000   0.2664694  -0.1667868), wk =   0.0050719
        k(   93) = (   0.0000000   0.2664694  -0.2501802), wk =   0.0050719
        k(   94) = (   0.0000000   0.3552925  -0.0833934), wk =   0.0050719
        k(   95) = (   0.0000000   0.3552925  -0.1667868), wk =   0.0050719
        k(   96) = (   0.0000000   0.3552925  -0.2501802), wk =   0.0050719
        k(   97) = (   0.0000000   0.4441156  -0.0833934), wk =   0.0050719
        k(   98) = (   0.0000000   0.4441156  -0.1667868), wk =   0.0050719
        k(   99) = (   0.0000000   0.4441156  -0.2501802), wk =   0.0050719
        k(  100) = (   0.0000000   0.5329387  -0.0833934), wk =   0.0050719
        k(  101) = (   0.0000000   0.5329387  -0.1667868), wk =   0.0050719
        k(  102) = (   0.0000000   0.5329387  -0.2501802), wk =   0.0050719
        k(  103) = (  -0.0769231   0.2220578  -0.0833934), wk =   0.0101437
        k(  104) = (  -0.0769231   0.2220578  -0.1667868), wk =   0.0101437
        k(  105) = (  -0.0769231   0.2220578  -0.2501802), wk =   0.0101437
        k(  106) = (  -0.0769231   0.3108809  -0.0833934), wk =   0.0101437
        k(  107) = (  -0.0769231   0.3108809  -0.1667868), wk =   0.0101437
        k(  108) = (  -0.0769231   0.3108809  -0.2501802), wk =   0.0101437
        k(  109) = (  -0.0769231   0.3997040  -0.0833934), wk =   0.0101437
        k(  110) = (  -0.0769231   0.3997040  -0.1667868), wk =   0.0101437
        k(  111) = (  -0.0769231   0.3997040  -0.2501802), wk =   0.0101437
        k(  112) = (  -0.0769231   0.4885272  -0.0833934), wk =   0.0101437
        k(  113) = (  -0.0769231   0.4885272  -0.1667868), wk =   0.0101437
        k(  114) = (  -0.0769231   0.4885272  -0.2501802), wk =   0.0101437
        k(  115) = (  -0.1538462   0.3552925  -0.0833934), wk =   0.0101437
        k(  116) = (  -0.1538462   0.3552925  -0.1667868), wk =   0.0101437
        k(  117) = (  -0.1538462   0.3552925  -0.2501802), wk =   0.0101437
        k(  118) = (  -0.1538462   0.4441156  -0.0833934), wk =   0.0101437
        k(  119) = (  -0.1538462   0.4441156  -0.1667868), wk =   0.0101437
        k(  120) = (  -0.1538462   0.4441156  -0.2501802), wk =   0.0101437
        k(  121) = (  -0.1538462   0.5329387  -0.0833934), wk =   0.0101437
        k(  122) = (  -0.1538462   0.5329387  -0.1667868), wk =   0.0101437
        k(  123) = (  -0.1538462   0.5329387  -0.2501802), wk =   0.0101437
        k(  124) = (  -0.2307692   0.4885272  -0.0833934), wk =   0.0101437
        k(  125) = (  -0.2307692   0.4885272  -0.1667868), wk =   0.0101437
        k(  126) = (  -0.2307692   0.4885272  -0.2501802), wk =   0.0101437

                       cryst. coord.
        k(    1) = (   0.0000000   0.0000000   0.0000000), wk =   0.0008453
        k(    2) = (   0.0000000   0.0000000   0.1428571), wk =   0.0016906
        k(    3) = (   0.0000000   0.0000000   0.2857143), wk =   0.0016906
        k(    4) = (   0.0000000   0.0000000   0.4285714), wk =   0.0016906
        k(    5) = (   0.0000000   0.0769231   0.0000000), wk =   0.0050719
        k(    6) = (   0.0000000   0.0769231   0.1428571), wk =   0.0050719
        k(    7) = (   0.0000000   0.0769231   0.2857143), wk =   0.0050719
        k(    8) = (   0.0000000   0.0769231   0.4285714), wk =   0.0050719
        k(    9) = (   0.0000000   0.1538462   0.0000000), wk =   0.0050719
        k(   10) = (   0.0000000   0.1538462   0.1428571), wk =   0.0050719
        k(   11) = (   0.0000000   0.1538462   0.2857143), wk =   0.0050719
        k(   12) = (   0.0000000   0.1538462   0.4285714), wk =   0.0050719
        k(   13) = (   0.0000000   0.2307692   0.0000000), wk =   0.0050719
        k(   14) = (   0.0000000   0.2307692   0.1428571), wk =   0.0050719
        k(   15) = (   0.0000000   0.2307692   0.2857143), wk =   0.0050719
        k(   16) = (   0.0000000   0.2307692   0.4285714), wk =   0.0050719
        k(   17) = (   0.0000000   0.3076923   0.0000000), wk =   0.0050719
        k(   18) = (   0.0000000   0.3076923   0.1428571), wk =   0.0050719
        k(   19) = (   0.0000000   0.3076923   0.2857143), wk =   0.0050719
        k(   20) = (   0.0000000   0.3076923   0.4285714), wk =   0.0050719
        k(   21) = (   0.0000000   0.3846154   0.0000000), wk =   0.0050719
        k(   22) = (   0.0000000   0.3846154   0.1428571), wk =   0.0050719
        k(   23) = (   0.0000000   0.3846154   0.2857143), wk =   0.0050719
        k(   24) = (   0.0000000   0.3846154   0.4285714), wk =   0.0050719
        k(   25) = (   0.0000000   0.4615385   0.0000000), wk =   0.0050719
        k(   26) = (   0.0000000   0.4615385   0.1428571), wk =   0.0050719
        k(   27) = (   0.0000000   0.4615385   0.2857143), wk =   0.0050719
        k(   28) = (   0.0000000   0.4615385   0.4285714), wk =   0.0050719
        k(   29) = (   0.0769231   0.0769231   0.0000000), wk =   0.0050719
        k(   30) = (   0.0769231   0.0769231   0.1428571), wk =   0.0101437
        k(   31) = (   0.0769231   0.0769231   0.2857143), wk =   0.0101437
        k(   32) = (   0.0769231   0.0769231   0.4285714), wk =   0.0101437
        k(   33) = (   0.0769231   0.1538462   0.0000000), wk =   0.0101437
        k(   34) = (   0.0769231   0.1538462   0.1428571), wk =   0.0101437
        k(   35) = (   0.0769231   0.1538462   0.2857143), wk =   0.0101437
        k(   36) = (   0.0769231   0.1538462   0.4285714), wk =   0.0101437
        k(   37) = (   0.0769231   0.2307692   0.0000000), wk =   0.0101437
        k(   38) = (   0.0769231   0.2307692   0.1428571), wk =   0.0101437
        k(   39) = (   0.0769231   0.2307692   0.2857143), wk =   0.0101437
        k(   40) = (   0.0769231   0.2307692   0.4285714), wk =   0.0101437
        k(   41) = (   0.0769231   0.3076923   0.0000000), wk =   0.0101437
        k(   42) = (   0.0769231   0.3076923   0.1428571), wk =   0.0101437
        k(   43) = (   0.0769231   0.3076923   0.2857143), wk =   0.0101437
        k(   44) = (   0.0769231   0.3076923   0.4285714), wk =   0.0101437
        k(   45) = (   0.0769231   0.3846154   0.0000000), wk =   0.0101437
        k(   46) = (   0.0769231   0.3846154   0.1428571), wk =   0.0101437
        k(   47) = (   0.0769231   0.3846154   0.2857143), wk =   0.0101437
        k(   48) = (   0.0769231   0.3846154   0.4285714), wk =   0.0101437
        k(   49) = (   0.0769231   0.4615385   0.0000000), wk =   0.0050719
        k(   50) = (   0.0769231   0.4615385   0.1428571), wk =   0.0101437
        k(   51) = (   0.0769231   0.4615385   0.2857143), wk =   0.0101437
        k(   52) = (   0.0769231   0.4615385   0.4285714), wk =   0.0101437
        k(   53) = (   0.1538462   0.1538462   0.0000000), wk =   0.0050719
        k(   54) = (   0.1538462   0.1538462   0.1428571), wk =   0.0101437
        k(   55) = (   0.1538462   0.1538462   0.2857143), wk =   0.0101437
        k(   56) = (   0.1538462   0.1538462   0.4285714), wk =   0.0101437
        k(   57) = (   0.1538462   0.2307692   0.0000000), wk =   0.0101437
        k(   58) = (   0.1538462   0.2307692   0.1428571), wk =   0.0101437
        k(   59) = (   0.1538462   0.2307692   0.2857143), wk =   0.0101437
        k(   60) = (   0.1538462   0.2307692   0.4285714), wk =   0.0101437
        k(   61) = (   0.1538462   0.3076923   0.0000000), wk =   0.0101437
        k(   62) = (   0.1538462   0.3076923   0.1428571), wk =   0.0101437
        k(   63) = (   0.1538462   0.3076923   0.2857143), wk =   0.0101437
        k(   64) = (   0.1538462   0.3076923   0.4285714), wk =   0.0101437
        k(   65) = (   0.1538462   0.3846154   0.0000000), wk =   0.0101437
        k(   66) = (   0.1538462   0.3846154   0.1428571), wk =   0.0101437
        k(   67) = (   0.1538462   0.3846154   0.2857143), wk =   0.0101437
        k(   68) = (   0.1538462   0.3846154   0.4285714), wk =   0.0101437
        k(   69) = (   0.2307692   0.2307692   0.0000000), wk =   0.0050719
        k(   70) = (   0.2307692   0.2307692   0.1428571), wk =   0.0101437
        k(   71) = (   0.2307692   0.2307692   0.2857143), wk =   0.0101437
        k(   72) = (   0.2307692   0.2307692   0.4285714), wk =   0.0101437
        k(   73) = (   0.2307692   0.3076923   0.0000000), wk =   0.0101437
        k(   74) = (   0.2307692   0.3076923   0.1428571), wk =   0.0101437
        k(   75) = (   0.2307692   0.3076923   0.2857143), wk =   0.0101437
        k(   76) = (   0.2307692   0.3076923   0.4285714), wk =   0.0101437
        k(   77) = (   0.2307692   0.3846154   0.0000000), wk =   0.0050719
        k(   78) = (   0.2307692   0.3846154   0.1428571), wk =   0.0101437
        k(   79) = (   0.2307692   0.3846154   0.2857143), wk =   0.0101437
        k(   80) = (   0.2307692   0.3846154   0.4285714), wk =   0.0101437
        k(   81) = (   0.3076923   0.3076923   0.0000000), wk =   0.0050719
        k(   82) = (   0.3076923   0.3076923   0.1428571), wk =   0.0101437
        k(   83) = (   0.3076923   0.3076923   0.2857143), wk =   0.0101437
        k(   84) = (   0.3076923   0.3076923   0.4285714), wk =   0.0101437
        k(   85) = (   0.0000000   0.0769231  -0.1428571), wk =   0.0050719
        k(   86) = (   0.0000000   0.0769231  -0.2857143), wk =   0.0050719
        k(   87) = (   0.0000000   0.0769231  -0.4285714), wk =   0.0050719
        k(   88) = (   0.0000000   0.1538462  -0.1428571), wk =   0.0050719
        k(   89) = (   0.0000000   0.1538462  -0.2857143), wk =   0.0050719
        k(   90) = (   0.0000000   0.1538462  -0.4285714), wk =   0.0050719
        k(   91) = (   0.0000000   0.2307692  -0.1428571), wk =   0.0050719
        k(   92) = (   0.0000000   0.2307692  -0.2857143), wk =   0.0050719
        k(   93) = (   0.0000000   0.2307692  -0.4285714), wk =   0.0050719
        k(   94) = (   0.0000000   0.3076923  -0.1428571), wk =   0.0050719
        k(   95) = (   0.0000000   0.3076923  -0.2857143), wk =   0.0050719
        k(   96) = (   0.0000000   0.3076923  -0.4285714), wk =   0.0050719
        k(   97) = (   0.0000000   0.3846154  -0.1428571), wk =   0.0050719
        k(   98) = (   0.0000000   0.3846154  -0.2857143), wk =   0.0050719
        k(   99) = (   0.0000000   0.3846154  -0.4285714), wk =   0.0050719
        k(  100) = (   0.0000000   0.4615385  -0.1428571), wk =   0.0050719
        k(  101) = (   0.0000000   0.4615385  -0.2857143), wk =   0.0050719
        k(  102) = (   0.0000000   0.4615385  -0.4285714), wk =   0.0050719
        k(  103) = (  -0.0769231   0.2307692  -0.1428571), wk =   0.0101437
        k(  104) = (  -0.0769231   0.2307692  -0.2857143), wk =   0.0101437
        k(  105) = (  -0.0769231   0.2307692  -0.4285714), wk =   0.0101437
        k(  106) = (  -0.0769231   0.3076923  -0.1428571), wk =   0.0101437
        k(  107) = (  -0.0769231   0.3076923  -0.2857143), wk =   0.0101437
        k(  108) = (  -0.0769231   0.3076923  -0.4285714), wk =   0.0101437
        k(  109) = (  -0.0769231   0.3846154  -0.1428571), wk =   0.0101437
        k(  110) = (  -0.0769231   0.3846154  -0.2857143), wk =   0.0101437
        k(  111) = (  -0.0769231   0.3846154  -0.4285714), wk =   0.0101437
        k(  112) = (  -0.0769231   0.4615385  -0.1428571), wk =   0.0101437
        k(  113) = (  -0.0769231   0.4615385  -0.2857143), wk =   0.0101437
        k(  114) = (  -0.0769231   0.4615385  -0.4285714), wk =   0.0101437
        k(  115) = (  -0.1538462   0.3846154  -0.1428571), wk =   0.0101437
        k(  116) = (  -0.1538462   0.3846154  -0.2857143), wk =   0.0101437
        k(  117) = (  -0.1538462   0.3846154  -0.4285714), wk =   0.0101437
        k(  118) = (  -0.1538462   0.4615385  -0.1428571), wk =   0.0101437
        k(  119) = (  -0.1538462   0.4615385  -0.2857143), wk =   0.0101437
        k(  120) = (  -0.1538462   0.4615385  -0.4285714), wk =   0.0101437
        k(  121) = (  -0.1538462   0.5384615  -0.1428571), wk =   0.0101437
        k(  122) = (  -0.1538462   0.5384615  -0.2857143), wk =   0.0101437
        k(  123) = (  -0.1538462   0.5384615  -0.4285714), wk =   0.0101437
        k(  124) = (  -0.2307692   0.5384615  -0.1428571), wk =   0.0101437
        k(  125) = (  -0.2307692   0.5384615  -0.2857143), wk =   0.0101437
        k(  126) = (  -0.2307692   0.5384615  -0.4285714), wk =   0.0101437

     Dense  grid:    67167 G-vectors     FFT dimensions: (  45,  45,  75)

     Dynamical RAM for                 wfc:       2.69 MB

     Dynamical RAM for     wfc (w. buffer):     172.22 MB

     Dynamical RAM for           str. fact:       2.05 MB

     Dynamical RAM for           local pot:       0.00 MB

     Dynamical RAM for          nlocal pot:       6.92 MB

     Dynamical RAM for                qrad:       2.94 MB

     Dynamical RAM for          rho,v,vnew:      13.10 MB

     Dynamical RAM for               rhoin:       4.37 MB

     Dynamical RAM for            rho*nmix:      32.80 MB

     Dynamical RAM for           G-vectors:       4.36 MB

     Dynamical RAM for          h,s,v(r/c):       0.08 MB

     Dynamical RAM for          <psi|beta>:       0.02 MB

     Dynamical RAM for                 psi:       5.38 MB

     Dynamical RAM for                hpsi:       5.38 MB

     Dynamical RAM for      wfcinit/wfcrot:       5.39 MB

     Estimated static dynamical RAM per process >     215.99 MB

     Estimated max dynamical RAM per process >     259.65 MB

     Estimated total dynamical RAM >     940.20 MB
     Generating pointlists ...
     new r_m :   0.2901 (alat units)  2.1990 (a.u.) for type    1
     new r_m :   0.2901 (alat units)  2.1990 (a.u.) for type    2

     Initial potential from superposition of free atoms

     starting charge      33.9997, renormalised to      34.0000
     Starting wfcs are   18 randomized atomic wfcs +    3 random wfcs

     total cpu time spent up to now is        1.3 secs

     per-process dynamical memory:   533.9 Mb

     Self-consistent Calculation
[tb_dev] Currently allocated     5.83E-01 Mbytes, locked:    0 /   3
[tb_pin] Currently allocated     0.00E+00 Mbytes, locked:    0 /   0

     iteration #  1     ecut=    84.00 Ry     beta= 0.40
     Davidson diagonalization with overlap

---- Real-time Memory Report at c_bands before calling an iterative solver
           828 MiB given to the printing process from OS
           522 MiB allocation reported by mallinfo(arena+hblkhd)
        832662 MiB available memory on the node where the printing process lives
     GPU memory used/free/total (MiB): 1853 / 95426 / 97280
------------------
     ethr =  1.00E-02,  avg # of iterations =  4.6

     Threshold (ethr) on eigenvalues was too large:
     Diagonalizing with lowered threshold

     Davidson diagonalization with overlap

---- Real-time Memory Report at c_bands before calling an iterative solver
           864 MiB given to the printing process from OS
           588 MiB allocation reported by mallinfo(arena+hblkhd)
        832082 MiB available memory on the node where the printing process lives
     GPU memory used/free/total (MiB): 1929 / 95350 / 97280
------------------
     ethr =  5.66E-04,  avg # of iterations =  1.3

     total cpu time spent up to now is        2.5 secs

     total energy              =    -469.66190273 Ry
     estimated scf accuracy    <       0.19104171 Ry

     total magnetization       =     0.00 Bohr mag/cell
     absolute magnetization    =     0.17 Bohr mag/cell
[tb_dev] Currently allocated     0.00E+00 Mbytes, locked:    0 /   0
[tb_pin] Currently allocated     0.00E+00 Mbytes, locked:    0 /   0

     iteration #  2     ecut=    84.00 Ry     beta= 0.40
     Davidson diagonalization with overlap

---- Real-time Memory Report at c_bands before calling an iterative solver
           864 MiB given to the printing process from OS
           612 MiB allocation reported by mallinfo(arena+hblkhd)
        832058 MiB available memory on the node where the printing process lives
     GPU memory used/free/total (MiB): 1945 / 95334 / 97280
------------------
     ethr =  5.62E-04,  avg # of iterations =  1.0

     total cpu time spent up to now is        2.9 secs

     total energy              =    -469.67397788 Ry
     estimated scf accuracy    <       0.19034067 Ry

     total magnetization       =     0.00 Bohr mag/cell
     absolute magnetization    =     0.17 Bohr mag/cell
[tb_dev] Currently allocated     0.00E+00 Mbytes, locked:    0 /   0
[tb_pin] Currently allocated     0.00E+00 Mbytes, locked:    0 /   0

     iteration #  3     ecut=    84.00 Ry     beta= 0.40
     Davidson diagonalization with overlap

---- Real-time Memory Report at c_bands before calling an iterative solver
           900 MiB given to the printing process from OS
           618 MiB allocation reported by mallinfo(arena+hblkhd)
        832050 MiB available memory on the node where the printing process lives
     GPU memory used/free/total (MiB): 1945 / 95334 / 97280
------------------
     ethr =  5.60E-04,  avg # of iterations =  2.3

     total cpu time spent up to now is        3.5 secs

     total energy              =    -469.71098814 Ry
     estimated scf accuracy    <       0.06997002 Ry

     total magnetization       =     0.00 Bohr mag/cell
     absolute magnetization    =     0.13 Bohr mag/cell
[tb_dev] Currently allocated     0.00E+00 Mbytes, locked:    0 /   0
[tb_pin] Currently allocated     0.00E+00 Mbytes, locked:    0 /   0

     iteration #  4     ecut=    84.00 Ry     beta= 0.40
     Davidson diagonalization with overlap

---- Real-time Memory Report at c_bands before calling an iterative solver
           900 MiB given to the printing process from OS
           620 MiB allocation reported by mallinfo(arena+hblkhd)
        832042 MiB available memory on the node where the printing process lives
     GPU memory used/free/total (MiB): 1945 / 95334 / 97280
------------------
     ethr =  2.06E-04,  avg # of iterations =  2.8

     total cpu time spent up to now is        4.3 secs

     total energy              =    -469.72342735 Ry
     estimated scf accuracy    <       0.04836658 Ry

     total magnetization       =    -0.00 Bohr mag/cell
     absolute magnetization    =     0.11 Bohr mag/cell
[tb_dev] Currently allocated     0.00E+00 Mbytes, locked:    0 /   0
[tb_pin] Currently allocated     0.00E+00 Mbytes, locked:    0 /   0

     iteration #  5     ecut=    84.00 Ry     beta= 0.40
     Davidson diagonalization with overlap

---- Real-time Memory Report at c_bands before calling an iterative solver
           900 MiB given to the printing process from OS
           626 MiB allocation reported by mallinfo(arena+hblkhd)
        832034 MiB available memory on the node where the printing process lives
     GPU memory used/free/total (MiB): 1945 / 95334 / 97280
------------------
     ethr =  1.42E-04,  avg # of iterations =  1.2

     total cpu time spent up to now is        4.7 secs

     total energy              =    -469.72415466 Ry
     estimated scf accuracy    <       0.04195152 Ry

     total magnetization       =    -0.00 Bohr mag/cell
     absolute magnetization    =     0.11 Bohr mag/cell
[tb_dev] Currently allocated     0.00E+00 Mbytes, locked:    0 /   0
[tb_pin] Currently allocated     0.00E+00 Mbytes, locked:    0 /   0

     iteration #  6     ecut=    84.00 Ry     beta= 0.40
     Davidson diagonalization with overlap

---- Real-time Memory Report at c_bands before calling an iterative solver
           900 MiB given to the printing process from OS
           631 MiB allocation reported by mallinfo(arena+hblkhd)
        832026 MiB available memory on the node where the printing process lives
     GPU memory used/free/total (MiB): 1945 / 95334 / 97280
------------------
     ethr =  1.23E-04,  avg # of iterations =  1.1

     total cpu time spent up to now is        5.1 secs

     total energy              =    -469.72366144 Ry
     estimated scf accuracy    <       0.04140829 Ry

     total magnetization       =    -0.00 Bohr mag/cell
     absolute magnetization    =     0.11 Bohr mag/cell
[tb_dev] Currently allocated     0.00E+00 Mbytes, locked:    0 /   0
[tb_pin] Currently allocated     0.00E+00 Mbytes, locked:    0 /   0

     iteration #  7     ecut=    84.00 Ry     beta= 0.40
     Davidson diagonalization with overlap

---- Real-time Memory Report at c_bands before calling an iterative solver
           936 MiB given to the printing process from OS
           635 MiB allocation reported by mallinfo(arena+hblkhd)
        832018 MiB available memory on the node where the printing process lives
     GPU memory used/free/total (MiB): 1945 / 95334 / 97280
------------------
     ethr =  1.22E-04,  avg # of iterations =  1.2

     total cpu time spent up to now is        5.6 secs

     total energy              =    -469.72351540 Ry
     estimated scf accuracy    <       0.04146526 Ry

     total magnetization       =    -0.00 Bohr mag/cell
     absolute magnetization    =     0.12 Bohr mag/cell
[tb_dev] Currently allocated     0.00E+00 Mbytes, locked:    0 /   0
[tb_pin] Currently allocated     0.00E+00 Mbytes, locked:    0 /   0

     iteration #  8     ecut=    84.00 Ry     beta= 0.40
     Davidson diagonalization with overlap

---- Real-time Memory Report at c_bands before calling an iterative solver
           936 MiB given to the printing process from OS
           639 MiB allocation reported by mallinfo(arena+hblkhd)
        832010 MiB available memory on the node where the printing process lives
     GPU memory used/free/total (MiB): 1945 / 95334 / 97280
------------------
     ethr =  1.22E-04,  avg # of iterations =  1.0

     total cpu time spent up to now is        6.0 secs

     total energy              =    -469.72346181 Ry
     estimated scf accuracy    <       0.04136759 Ry

     total magnetization       =    -0.00 Bohr mag/cell
     absolute magnetization    =     0.12 Bohr mag/cell
[tb_dev] Currently allocated     0.00E+00 Mbytes, locked:    0 /   0
[tb_pin] Currently allocated     0.00E+00 Mbytes, locked:    0 /   0

     iteration #  9     ecut=    84.00 Ry     beta= 0.40
     Davidson diagonalization with overlap

---- Real-time Memory Report at c_bands before calling an iterative solver
           936 MiB given to the printing process from OS
           643 MiB allocation reported by mallinfo(arena+hblkhd)
        832002 MiB available memory on the node where the printing process lives
     GPU memory used/free/total (MiB): 1945 / 95334 / 97280
------------------
     ethr =  1.22E-04,  avg # of iterations =  1.0

     total cpu time spent up to now is        6.3 secs

     total energy              =    -469.72345725 Ry
     estimated scf accuracy    <       0.04131541 Ry

     total magnetization       =    -0.00 Bohr mag/cell
     absolute magnetization    =     0.12 Bohr mag/cell
[tb_dev] Currently allocated     0.00E+00 Mbytes, locked:    0 /   0
[tb_pin] Currently allocated     0.00E+00 Mbytes, locked:    0 /   0

     iteration # 10     ecut=    84.00 Ry     beta= 0.40
     Davidson diagonalization with overlap

---- Real-time Memory Report at c_bands before calling an iterative solver
           936 MiB given to the printing process from OS
           647 MiB allocation reported by mallinfo(arena+hblkhd)
        831995 MiB available memory on the node where the printing process lives
     GPU memory used/free/total (MiB): 1945 / 95334 / 97280
------------------
     ethr =  1.22E-04,  avg # of iterations =  1.1

     total cpu time spent up to now is        6.8 secs

     total energy              =    -469.70793239 Ry
     estimated scf accuracy    <       0.04134293 Ry

     total magnetization       =    -0.00 Bohr mag/cell
     absolute magnetization    =     0.12 Bohr mag/cell
[tb_dev] Currently allocated     0.00E+00 Mbytes, locked:    0 /   0
[tb_pin] Currently allocated     0.00E+00 Mbytes, locked:    0 /   0

     iteration # 11     ecut=    84.00 Ry     beta= 0.40
     Davidson diagonalization with overlap

---- Real-time Memory Report at c_bands before calling an iterative solver
           936 MiB given to the printing process from OS
           647 MiB allocation reported by mallinfo(arena+hblkhd)
        831939 MiB available memory on the node where the printing process lives
     GPU memory used/free/total (MiB): 1945 / 95334 / 97280
------------------
     ethr =  1.22E-04,  avg # of iterations =  2.3

     total cpu time spent up to now is        7.4 secs

     total energy              =    -469.71139818 Ry
     estimated scf accuracy    <       0.01763813 Ry

     total magnetization       =    -0.00 Bohr mag/cell
     absolute magnetization    =     0.07 Bohr mag/cell
[tb_dev] Currently allocated     0.00E+00 Mbytes, locked:    0 /   0
[tb_pin] Currently allocated     0.00E+00 Mbytes, locked:    0 /   0

     iteration # 12     ecut=    84.00 Ry     beta= 0.40
     Davidson diagonalization with overlap

---- Real-time Memory Report at c_bands before calling an iterative solver
           936 MiB given to the printing process from OS
           649 MiB allocation reported by mallinfo(arena+hblkhd)
        831362 MiB available memory on the node where the printing process lives
     GPU memory used/free/total (MiB): 2065 / 95214 / 97280
------------------
     ethr =  5.19E-05,  avg # of iterations =  2.5

     total cpu time spent up to now is        8.1 secs

     total energy              =    -469.71482037 Ry
     estimated scf accuracy    <       0.00128281 Ry

     total magnetization       =    -0.00 Bohr mag/cell
     absolute magnetization    =     0.02 Bohr mag/cell
[tb_dev] Currently allocated     0.00E+00 Mbytes, locked:    0 /   0
[tb_pin] Currently allocated     0.00E+00 Mbytes, locked:    0 /   0

     iteration # 13     ecut=    84.00 Ry     beta= 0.40
     Davidson diagonalization with overlap

---- Real-time Memory Report at c_bands before calling an iterative solver
           936 MiB given to the printing process from OS
           653 MiB allocation reported by mallinfo(arena+hblkhd)
        831330 MiB available memory on the node where the printing process lives
     GPU memory used/free/total (MiB): 2089 / 95190 / 97280
------------------
     ethr =  3.77E-06,  avg # of iterations =  4.2

     total cpu time spent up to now is        9.2 secs

     total energy              =    -469.71508572 Ry
     estimated scf accuracy    <       0.00007927 Ry

     total magnetization       =    -0.00 Bohr mag/cell
     absolute magnetization    =     0.03 Bohr mag/cell
[tb_dev] Currently allocated     0.00E+00 Mbytes, locked:    0 /   0
[tb_pin] Currently allocated     0.00E+00 Mbytes, locked:    0 /   0

     iteration # 14     ecut=    84.00 Ry     beta= 0.40
     Davidson diagonalization with overlap

---- Real-time Memory Report at c_bands before calling an iterative solver
           936 MiB given to the printing process from OS
           653 MiB allocation reported by mallinfo(arena+hblkhd)
        831282 MiB available memory on the node where the printing process lives
     GPU memory used/free/total (MiB): 2111 / 95168 / 97280
------------------
     ethr =  2.33E-07,  avg # of iterations =  2.1

     total cpu time spent up to now is        9.8 secs

     total energy              =    -469.71510475 Ry
     estimated scf accuracy    <       0.00001696 Ry

     total magnetization       =    -0.00 Bohr mag/cell
     absolute magnetization    =     0.01 Bohr mag/cell
[tb_dev] Currently allocated     0.00E+00 Mbytes, locked:    0 /   0
[tb_pin] Currently allocated     0.00E+00 Mbytes, locked:    0 /   0

     iteration # 15     ecut=    84.00 Ry     beta= 0.40
     Davidson diagonalization with overlap

---- Real-time Memory Report at c_bands before calling an iterative solver
           936 MiB given to the printing process from OS
           653 MiB allocation reported by mallinfo(arena+hblkhd)
        831210 MiB available memory on the node where the printing process lives
     GPU memory used/free/total (MiB): 2111 / 95168 / 97280
------------------
     ethr =  4.99E-08,  avg # of iterations =  2.0

     total cpu time spent up to now is       10.3 secs

     total energy              =    -469.71510989 Ry
     estimated scf accuracy    <       0.00000113 Ry

     total magnetization       =    -0.00 Bohr mag/cell
     absolute magnetization    =     0.01 Bohr mag/cell
[tb_dev] Currently allocated     0.00E+00 Mbytes, locked:    0 /   0
[tb_pin] Currently allocated     0.00E+00 Mbytes, locked:    0 /   0

     iteration # 16     ecut=    84.00 Ry     beta= 0.40
     Davidson diagonalization with overlap

---- Real-time Memory Report at c_bands before calling an iterative solver
           936 MiB given to the printing process from OS
           653 MiB allocation reported by mallinfo(arena+hblkhd)
        831210 MiB available memory on the node where the printing process lives
     GPU memory used/free/total (MiB): 2111 / 95168 / 97280
------------------
     ethr =  3.33E-09,  avg # of iterations =  2.5

     total cpu time spent up to now is       10.9 secs

     total energy              =    -469.71511068 Ry
     estimated scf accuracy    <       0.00000018 Ry

     total magnetization       =    -0.00 Bohr mag/cell
     absolute magnetization    =     0.00 Bohr mag/cell
[tb_dev] Currently allocated     0.00E+00 Mbytes, locked:    0 /   0
[tb_pin] Currently allocated     0.00E+00 Mbytes, locked:    0 /   0

     iteration # 17     ecut=    84.00 Ry     beta= 0.40
     Davidson diagonalization with overlap

---- Real-time Memory Report at c_bands before calling an iterative solver
           936 MiB given to the printing process from OS
           653 MiB allocation reported by mallinfo(arena+hblkhd)
        831130 MiB available memory on the node where the printing process lives
     GPU memory used/free/total (MiB): 2147 / 95132 / 97280
------------------
     ethr =  5.17E-10,  avg # of iterations =  2.0

     total cpu time spent up to now is       11.4 secs

     total energy              =    -469.71511077 Ry
     estimated scf accuracy    <       0.00000005 Ry

     total magnetization       =    -0.00 Bohr mag/cell
     absolute magnetization    =     0.00 Bohr mag/cell
[tb_dev] Currently allocated     0.00E+00 Mbytes, locked:    0 /   0
[tb_pin] Currently allocated     0.00E+00 Mbytes, locked:    0 /   0

     iteration # 18     ecut=    84.00 Ry     beta= 0.40
     Davidson diagonalization with overlap

---- Real-time Memory Report at c_bands before calling an iterative solver
           936 MiB given to the printing process from OS
           653 MiB allocation reported by mallinfo(arena+hblkhd)
        831130 MiB available memory on the node where the printing process lives
     GPU memory used/free/total (MiB): 2147 / 95132 / 97280
------------------
     ethr =  1.49E-10,  avg # of iterations =  2.1
 
     Magnetic moment per site  (integrated on atomic sphere of radius R)
     atom   1 (R=0.290)  charge= 18.7882  magn=  0.0001
     atom   2 (R=0.290)  charge=  4.3837  magn= -0.0000
     atom   3 (R=0.290)  charge=  4.3837  magn= -0.0000

     total cpu time spent up to now is       11.8 secs

     End of self-consistent calculation

 ------ SPIN UP ------------


          k = 0.0000 0.0000 0.0000 (  8305 PWs)   bands (ev):

  -119.9515 -74.2873 -74.2873 -74.2793  -7.8577  -6.9352  -1.4195  -1.4195
    -1.3686  -1.2407  -1.2407   0.5420   4.5655   4.6427   4.6427   4.7276
     4.7276   7.4585   9.2941  10.8794  10.8794

     occupation numbers 
     1.0000   1.0000   1.0000   1.0000   1.0000   1.0000   1.0000   1.0000
     1.0000   1.0000   1.0000   1.0000   1.0000   1.0000   1.0000   1.0000
     1.0000   0.0000   0.0000   0.0000   0.0000

          k = 0.0000 0.0000 0.0834 (  8336 PWs)   bands (ev):

  -119.9515 -74.2873 -74.2873 -74.2793  -7.8381  -6.9659  -1.4195  -1.4195
    -1.3624  -1.2407  -1.2407   0.6422   4.2786   4.6196   4.6196   4.7533
     4.7533   7.6903   9.3057  10.8478  10.8478

     occupation numbers 
     1.0000   1.0000   1.0000   1.0000   1.0000   1.0000   1.0000   1.0000
     1.0000   1.0000   1.0000   1.0000   1.0000   1.0000   1.0000   1.0000
     1.0000   0.0000   0.0000   0.0000   0.0000

          k = 0.0000 0.0000 0.1668 (  8372 PWs)   bands (ev):

  -119.9515 -74.2873 -74.2873 -74.2793  -7.7887  -7.0399  -1.4193  -1.4193
    -1.3497  -1.2407  -1.2407   0.9100   3.6820   4.5870   4.5870   4.7918
     4.7918   8.1236   9.3299  10.7800  10.7800

     occupation numbers 
     1.0000   1.0000   1.0000   1.0000   1.0000   1.0000   1.0000   1.0000
     1.0000   1.0000   1.0000   1.0000   1.0000   1.0000   1.0000   1.0000
     1.0000   0.0000   0.0000   0.0000   0.0000

          k = 0.0000 0.0000 0.2502 (  8426 PWs)   bands (ev):

  -119.9515 -74.2873 -74.2873 -74.2793  -7.7415  -7.1064  -1.4192  -1.4192
    -1.3406  -1.2407  -1.2407   1.2014   3.1805   4.5679   4.5679   4.8156
     4.8156   8.4222   9.3456  10.7285  10.7285

     occupation numbers 
     1.0000   1.0000   1.0000   1.0000   1.0000   1.0000   1.0000   1.0000
     1.0000   1.0000   1.0000   1.0000   1.0000   1.0000   1.0000   1.0000
     1.0000   0.0000   0.0000   0.0000   0.0000

          k = 0.0000 0.0888 0.0000 (  8315 PWs)   bands (ev):

  -119.9515 -74.2873 -74.2873 -74.2793  -7.8164  -6.9155  -1.4153  -1.4148
    -1.3587  -1.2431  -1.2410   0.5717   4.1346   4.4179   4.5237   4.6013
     4.8410   7.7758   9.6020  10.5717  10.9929

     occupation numbers 
     1.0000   1.0000   1.0000   1.0000   1.0000   1.0000   1.0000   1.0000
     1.0000   1.0000   1.0000   1.0000   1.0000   1.0000   1.0000   1.0000
     1.0000   0.0000   0.0000   0.0000   0.0000

          k = 0.0000 0.0888 0.0834 (  8332 PWs)   bands (ev):

  -119.9515 -74.2873 -74.2873 -74.2793  -7.7970  -6.9453  -1.4160  -1.4154
    -1.3526  -1.2432  -1.2410   0.6673   4.0760   4.3293   4.4570   4.6154
     4.7960   7.9418   9.6208  10.5809  11.0137

     occupation numbers 
     1.0000   1.0000   1.0000   1.0000   1.0000   1.0000   1.0000   1.0000
     1.0000   1.0000   1.0000   1.0000   1.0000   1.0000   1.0000   1.0000
     1.0000   0.0000   0.0000   0.0000   0.0000

          k = 0.0000 0.0888 0.1668 (  8364 PWs)   bands (ev):

  -119.9515 -74.2873 -74.2873 -74.2793  -7.7483  -7.0175  -1.4172  -1.4153
    -1.3412  -1.2432  -1.2410   0.9218   3.6631   4.1959   4.4784   4.6373
     4.7742   8.2598   9.6480  10.6519  10.9672

     occupation numbers 
     1.0000   1.0000   1.0000   1.0000   1.0000   1.0000   1.0000   1.0000
     1.0000   1.0000   1.0000   1.0000   1.0000   1.0000   1.0000   1.0000
     1.0000   0.0000   0.0000   0.0000   0.0000

          k = 0.0000 0.0888 0.2502 (  8392 PWs)   bands (ev):

  -119.9515 -74.2873 -74.2873 -74.2793  -7.7015  -7.0828  -1.4176  -1.4151
    -1.3333  -1.2433  -1.2410   1.1935   3.2078   4.2191   4.4578   4.6144
     4.8001   8.4807   9.6607  10.7297  10.8927

     occupation numbers 
     1.0000   1.0000   1.0000   1.0000   1.0000   1.0000   1.0000   1.0000
     1.0000   1.0000   1.0000   1.0000   1.0000   1.0000   1.0000   1.0000
     1.0000   0.0000   0.0000   0.0000   0.0000

          k = 0.0000 0.1776 0.0000 (  8367 PWs)   bands (ev):

  -119.9515 -74.2873 -74.2873 -74.2793  -7.6968  -6.8611  -1.4047  -1.4006
    -1.3317  -1.2502  -1.2403   0.6506   3.2658   3.9661   4.0899   4.5754
     4.8738   8.2069   9.8441  10.6675  11.2559

     occupation numbers 
     1.0000   1.0000   1.0000   1.0000   1.0000   1.0000   1.0000   1.0000
     1.0000   1.0000   1.0000   1.0000   1.0000   1.0000   1.0000   1.0000
     1.0000   0.0000   0.0000   0.0000   0.0000

          k = 0.0000 0.1776 0.0834 (  8375 PWs)   bands (ev):

  -119.9515 -74.2873 -74.2873 -74.2793  -7.6785  -6.8881  -1.4056  -1.4050
    -1.3258  -1.2506  -1.2403   0.7250   3.3183   3.9425   4.1297   4.3800
     4.8201   8.1717  10.0020  10.7871  11.3354

     occupation numbers 
     1.0000   1.0000   1.0000   1.0000   1.0000   1.0000   1.0000   1.0000
     1.0000   1.0000   1.0000   1.0000   1.0000   1.0000   1.0000   1.0000
     1.0000   0.0000   0.0000   0.0000   0.0000

          k = 0.0000 0.1776 0.1668 (  8381 PWs)   bands (ev):

  -119.9515 -74.2873 -74.2873 -74.2793  -7.6317  -6.9549  -1.4101  -1.4050
    -1.3176  -1.2510  -1.2403   0.9290   3.4170   3.6327   4.1725   4.2061
     4.7653   8.2169  10.1656  11.0621  11.3406

     occupation numbers 
     1.0000   1.0000   1.0000   1.0000   1.0000   1.0000   1.0000   1.0000
     1.0000   1.0000   1.0000   1.0000   1.0000   1.0000   1.0000   1.0000
     1.0000   0.0000   0.0000   0.0000   0.0000

          k = 0.0000 0.1776 0.2502 (  8397 PWs)   bands (ev):

  -119.9515 -74.2873 -74.2873 -74.2793  -7.5864  -7.0163  -1.4113  -1.4048
    -1.3131  -1.2510  -1.2404   1.1409   3.2270   3.5725   4.1122   4.1803
     4.7562   8.3098  10.2157  11.2308  11.2698

     occupation numbers 
     1.0000   1.0000   1.0000   1.0000   1.0000   1.0000   1.0000   1.0000
     1.0000   1.0000   1.0000   1.0000   1.0000   1.0000   1.0000   1.0000
     1.0000   0.0000   0.0000   0.0000   0.0000

          k = 0.0000 0.2665 0.0000 (  8389 PWs)   bands (ev):

  -119.9515 -74.2873 -74.2873 -74.2793  -7.5127  -6.7864  -1.3935  -1.3776
    -1.2942  -1.2623  -1.2349   0.7301   2.4344   3.2918   3.7516   4.5358
     4.8253   8.0623   9.9230  11.2142  11.4683

     occupation numbers 
     1.0000   1.0000   1.0000   1.0000   1.0000   1.0000   1.0000   1.0000
     1.0000   1.0000   1.0000   1.0000   1.0000   1.0000   1.0000   1.0000
     1.0000   0.0000   0.0000   0.0000   0.0000

          k = 0.0000 0.2665 0.0834 (  8383 PWs)   bands (ev):

  -119.9515 -74.2873 -74.2873 -74.2793  -7.4967  -6.8084  -1.3939  -1.3868
    -1.2892  -1.2637  -1.2348   0.7475   2.5767   3.2839   3.7880   4.3374
     4.7699   7.8807  10.1575  11.5914  11.5962

     occupation numbers 
     1.0000   1.0000   1.0000   1.0000   1.0000   1.0000   1.0000   1.0000
     1.0000   1.0000   1.0000   1.0000   1.0000   1.0000   1.0000   1.0000
     1.0000   0.0000   0.0000   0.0000   0.0000

          k = 0.0000 0.2665 0.1668 (  8391 PWs)   bands (ev):

  -119.9515 -74.2873 -74.2873 -74.2793  -7.4539  -6.8659  -1.3943  -1.3942
    -1.2855  -1.2646  -1.2348   0.8493   2.7280   3.2521   3.8387   4.0284
     4.6955   7.7858  10.4107  11.6446  11.6966

     occupation numbers 
     1.0000   1.0000   1.0000   1.0000   1.0000   1.0000   1.0000   1.0000
     1.0000   1.0000   1.0000   1.0000   1.0000   1.0000   1.0000   1.0000
     1.0000   0.0000   0.0000   0.0000   0.0000

          k = 0.0000 0.2665 0.2502 (  8394 PWs)   bands (ev):

  -119.9515 -74.2873 -74.2873 -74.2793  -7.4112  -6.9209  -1.3954  -1.3940
    -1.2852  -1.2640  -1.2349   0.9727   2.6486   3.4645   3.7012   3.8636
     4.6600   7.8428  10.4865  11.2646  11.6829

     occupation numbers 
     1.0000   1.0000   1.0000   1.0000   1.0000   1.0000   1.0000   1.0000
     1.0000   1.0000   1.0000   1.0000   1.0000   1.0000   1.0000   1.0000
     1.0000   0.0000   0.0000   0.0000   0.0000

          k = 0.0000 0.3553 0.0000 (  8401 PWs)   bands (ev):

  -119.9515 -74.2873 -74.2873 -74.2793  -7.2892  -6.7151  -1.3872  -1.3550
    -1.2792  -1.2497  -1.2223   0.6754   1.8696   2.7417   3.4545   4.4187
     4.7425   7.6055   9.9923  11.0529  11.5021

     occupation numbers 
     1.0000   1.0000   1.0000   1.0000   1.0000   1.0000   1.0000   1.0000
     1.0000   1.0000   1.0000   1.0000   1.0000   1.0000   1.0000   1.0000
     1.0000   0.0000   0.0000   0.0000   0.0000

          k = 0.0000 0.3553 0.0834 (  8391 PWs)   bands (ev):

  -119.9515 -74.2873 -74.2873 -74.2793  -7.2770  -6.7298  -1.3877  -1.3639
    -1.2826  -1.2483  -1.2222   0.6160   2.0505   2.7817   3.4868   4.2593
     4.6890   7.4208  10.1042  11.4120  11.6452

     occupation numbers 
     1.0000   1.0000   1.0000   1.0000   1.0000   1.0000   1.0000   1.0000
     1.0000   1.0000   1.0000   1.0000   1.0000   1.0000   1.0000   1.0000
     1.0000   0.0000   0.0000   0.0000   0.0000

          k = 0.0000 0.3553 0.1668 (  8403 PWs)   bands (ev):

  -119.9515 -74.2873 -74.2873 -74.2793  -7.2407  -6.7744  -1.3881  -1.3715
    -1.2836  -1.2494  -1.2222   0.6125   2.0963   2.9863   3.5405   4.0297
     4.6029   7.2947  10.2930  11.3183  11.8470

     occupation numbers 
     1.0000   1.0000   1.0000   1.0000   1.0000   1.0000   1.0000   1.0000
     1.0000   1.0000   1.0000   1.0000   1.0000   1.0000   1.0000   1.0000
     1.0000   0.0000   0.0000   0.0000   0.0000

          k = 0.0000 0.3553 0.2502 (  8406 PWs)   bands (ev):

  -119.9515 -74.2873 -74.2873 -74.2793  -7.2023  -6.8205  -1.3882  -1.3719
    -1.2820  -1.2519  -1.2223   0.6641   1.9683   3.3113   3.5756   3.7839
     4.5484   7.3471  10.3222  10.9571  11.9438

     occupation numbers 
     1.0000   1.0000   1.0000   1.0000   1.0000   1.0000   1.0000   1.0000
     1.0000   1.0000   1.0000   1.0000   1.0000   1.0000   1.0000   1.0000
     1.0000   0.0000   0.0000   0.0000   0.0000

          k = 0.0000 0.4441 0.0000 (  8409 PWs)   bands (ev):

  -119.9515 -74.2873 -74.2873 -74.2793  -7.0647  -6.6762  -1.3863  -1.3586
    -1.2879  -1.2065  -1.2008   0.4368   1.5687   2.5212   3.2363   4.2118
     4.6658   7.2289   9.8853  10.7442  11.4366

     occupation numbers 
     1.0000   1.0000   1.0000   1.0000   1.0000   1.0000   1.0000   1.0000
     1.0000   1.0000   1.0000   1.0000   1.0000   1.0000   1.0000   1.0000
     1.0000   0.0000   0.0000   0.0000   0.0000

          k = 0.0000 0.4441 0.0834 (  8407 PWs)   bands (ev):

  -119.9515 -74.2873 -74.2873 -74.2793  -7.0576  -6.6830  -1.3867  -1.3625
    -1.2929  -1.2065  -1.2038   0.3688   1.6411   2.6557   3.2643   4.1248
     4.6165   7.0767   9.9155  11.0424  11.5731

     occupation numbers 
     1.0000   1.0000   1.0000   1.0000   1.0000   1.0000   1.0000   1.0000
     1.0000   1.0000   1.0000   1.0000   1.0000   1.0000   1.0000   1.0000
     1.0000   0.0000   0.0000   0.0000   0.0000

          k = 0.0000 0.4441 0.1668 (  8404 PWs)   bands (ev):

  -119.9515 -74.2873 -74.2873 -74.2793  -7.0307  -6.7123  -1.3873  -1.3673
    -1.2926  -1.2082  -1.2065   0.3277   1.5646   2.9711   3.3186   4.0508
     4.5242   6.9364  10.0491  11.1239  11.4501

     occupation numbers 
     1.0000   1.0000   1.0000   1.0000   1.0000   1.0000   1.0000   1.0000
     1.0000   1.0000   1.0000   1.0000   1.0000   1.0000   1.0000   1.0000
     1.0000   0.0000   0.0000   0.0000   0.0000

          k = 0.0000 0.4441 0.2502 (  8396 PWs)   bands (ev):

  -119.9515 -74.2873 -74.2873 -74.2793  -6.9990  -6.7470  -1.3876  -1.3689
    -1.2870  -1.2114  -1.2065   0.3400   1.4253   3.2563   3.3601   3.9743
     4.4567   6.9661  10.0836  10.6328  11.2429

     occupation numbers 
     1.0000   1.0000   1.0000   1.0000   1.0000   1.0000   1.0000   1.0000
     1.0000   1.0000   1.0000   1.0000   1.0000   1.0000   1.0000   1.0000
     1.0000   0.0000   0.0000   0.0000   0.0000

          k = 0.0000 0.5329 0.0000 (  8408 PWs)   bands (ev):

  -119.9515 -74.2873 -74.2873 -74.2793  -6.8960  -6.6871  -1.3872  -1.3829
    -1.2860  -1.1957  -1.1636   0.2524   1.3755   2.5744   3.1210   4.0101
     4.6213   7.0371   9.7856  10.5818  11.3796

     occupation numbers 
     1.0000   1.0000   1.0000   1.0000   1.0000   1.0000   1.0000   1.0000
     1.0000   1.0000   1.0000   1.0000   1.0000   1.0000   1.0000   1.0000
     1.0000   0.0000   0.0000   0.0000   0.0000

          k = 0.0000 0.5329 0.0834 (  8406 PWs)   bands (ev):

  -119.9515 -74.2873 -74.2873 -74.2793  -6.8919  -6.6901  -1.3876  -1.3847
    -1.2868  -1.1957  -1.1664   0.2139   1.3471   2.7087   3.1449   4.0301
     4.5777   6.9312   9.7782  10.7990  11.5007

     occupation numbers 
     1.0000   1.0000   1.0000   1.0000   1.0000   1.0000   1.0000   1.0000
     1.0000   1.0000   1.0000   1.0000   1.0000   1.0000   1.0000   1.0000
     1.0000   0.0000   0.0000   0.0000   0.0000

          k = 0.0000 0.5329 0.1668 (  8404 PWs)   bands (ev):

  -119.9515 -74.2873 -74.2873 -74.2793  -6.8734  -6.7073  -1.3882  -1.3878
    -1.2837  -1.1957  -1.1697   0.1697   1.2206   2.9936   3.1985   4.1103
     4.4837   6.7925   9.8576  10.8887  11.0928

     occupation numbers 
     1.0000   1.0000   1.0000   1.0000   1.0000   1.0000   1.0000   1.0000
     1.0000   1.0000   1.0000   1.0000   1.0000   1.0000   1.0000   1.0000
     1.0000   0.0000   0.0000   0.0000   0.0000

          k = 0.0000 0.5329 0.2502 (  8399 PWs)   bands (ev):

  -119.9515 -74.2873 -74.2873 -74.2793  -6.8493  -6.7309  -1.3899  -1.3887
    -1.2788  -1.1957  -1.1711   0.1546   1.1002   3.2443   3.2453   4.1300
     4.4076   6.7808   9.8924  10.3936  10.9504

     occupation numbers 
     1.0000   1.0000   1.0000   1.0000   1.0000   1.0000   1.0000   1.0000
     1.0000   1.0000   1.0000   1.0000   1.0000   1.0000   1.0000   1.0000
     1.0000   0.0000   0.0000   0.0000   0.0000

          k = 0.0769 0.1332 0.0000 (  8361 PWs)   bands (ev):

  -119.9515 -74.2873 -74.2873 -74.2793  -7.7359  -6.8784  -1.4087  -1.4043
    -1.3406  -1.2471  -1.2414   0.6264   3.6272   3.7927   4.5075   4.6302
     4.7114   8.1450  10.0553  10.2620  11.2153

     occupation numbers 
     1.0000   1.0000   1.0000   1.0000   1.0000   1.0000   1.0000   1.0000
     1.0000   1.0000   1.0000   1.0000   1.0000   1.0000   1.0000   1.0000
     1.0000   0.0000   0.0000   0.0000   0.0000

          k = 0.0769 0.1332 0.0834 (  8363 PWs)   bands (ev):

  -119.9515 -74.2873 -74.2873 -74.2793  -7.7170  -6.9068  -1.4088  -1.4063
    -1.3358  -1.2472  -1.2414   0.7142   3.5986   3.8082   4.3248   4.6560
     4.6861   8.2290  10.0572  10.3654  11.2073

     occupation numbers 
     1.0000   1.0000   1.0000   1.0000   1.0000   1.0000   1.0000   1.0000
     1.0000   1.0000   1.0000   1.0000   1.0000   1.0000   1.0000   1.0000
     1.0000   0.0000   0.0000   0.0000   0.0000

          k = 0.0769 0.1332 0.1668 (  8378 PWs)   bands (ev):

  -119.9515 -74.2873 -74.2873 -74.2793  -7.6694  -6.9755  -1.4106  -1.4080
    -1.3264  -1.2475  -1.2414   0.9410   3.4508   3.8382   4.0662   4.5805
     4.6969   8.3794  10.0623  10.6311  11.1894

     occupation numbers 
     1.0000   1.0000   1.0000   1.0000   1.0000   1.0000   1.0000   1.0000
     1.0000   1.0000   1.0000   1.0000   1.0000   1.0000   1.0000   1.0000
     1.0000   0.0000   0.0000   0.0000   0.0000

          k = 0.0769 0.1332 0.2502 (  8396 PWs)   bands (ev):

  -119.9515 -74.2873 -74.2873 -74.2793  -7.6238  -7.0379  -1.4127  -1.4080
    -1.3201  -1.2476  -1.2415   1.1700   3.1997   3.8658   3.9676   4.5348
     4.6837   8.4713  10.0646  10.8933  11.1725

     occupation numbers 
     1.0000   1.0000   1.0000   1.0000   1.0000   1.0000   1.0000   1.0000
     1.0000   1.0000   1.0000   1.0000   1.0000   1.0000   1.0000   1.0000
     1.0000   0.0000   0.0000   0.0000   0.0000

          k = 0.0769 0.2221 0.0000 (  8385 PWs)   bands (ev):

  -119.9515 -74.2873 -74.2873 -74.2793  -7.5839  -6.8136  -1.3991  -1.3833
    -1.3105  -1.2547  -1.2392   0.7095   2.8284   3.2524   4.1336   4.5036
     4.7260   8.2786  10.0931  10.7699  11.4206

     occupation numbers 
     1.0000   1.0000   1.0000   1.0000   1.0000   1.0000   1.0000   1.0000
     1.0000   1.0000   1.0000   1.0000   1.0000   1.0000   1.0000   1.0000
     1.0000   0.0000   0.0000   0.0000   0.0000

          k = 0.0769 0.2221 0.0834 (  8384 PWs)   bands (ev):

  -119.9515 -74.2873 -74.2873 -74.2793  -7.5665  -6.8382  -1.3997  -1.3891
    -1.3059  -1.2554  -1.2391   0.7627   2.9214   3.2282   4.1866   4.2784
     4.7040   8.1847  10.3149  10.8090  11.5576

     occupation numbers 
     1.0000   1.0000   1.0000   1.0000   1.0000   1.0000   1.0000   1.0000
     1.0000   1.0000   1.0000   1.0000   1.0000   1.0000   1.0000   1.0000
     1.0000   0.0000   0.0000   0.0000   0.0000

          k = 0.0769 0.2221 0.1668 (  8382 PWs)   bands (ev):

  -119.9515 -74.2873 -74.2873 -74.2793  -7.5219  -6.8997  -1.4004  -1.3952
    -1.3002  -1.2560  -1.2391   0.9135   3.0786   3.1543   3.9551   4.2154
     4.6226   8.1452  10.5190  10.9689  11.6808

     occupation numbers 
     1.0000   1.0000   1.0000   1.0000   1.0000   1.0000   1.0000   1.0000
     1.0000   1.0000   1.0000   1.0000   1.0000   1.0000   1.0000   1.0000
     1.0000   0.0000   0.0000   0.0000   0.0000

          k = 0.0769 0.2221 0.2502 (  8395 PWs)   bands (ev):

  -119.9515 -74.2873 -74.2873 -74.2793  -7.4783  -6.9568  -1.4008  -1.3976
    -1.2973  -1.2562  -1.2391   1.0647   2.9638   3.3288   3.7110   4.1990
     4.5654   8.1888  10.5052  11.2593  11.4619

     occupation numbers 
     1.0000   1.0000   1.0000   1.0000   1.0000   1.0000   1.0000   1.0000
     1.0000   1.0000   1.0000   1.0000   1.0000   1.0000   1.0000   1.0000
     1.0000   0.0000   0.0000   0.0000   0.0000

          k = 0.0769 0.3109 0.0000 (  8389 PWs)   bands (ev):

  -119.9515 -74.2873 -74.2873 -74.2793  -7.3795  -6.7396  -1.3913  -1.3574
    -1.2753  -1.2656  -1.2294   0.7326   2.1365   2.7982   3.6465   4.3995
     4.6725   7.9457  10.2471  11.1432  11.4226

     occupation numbers 
     1.0000   1.0000   1.0000   1.0000   1.0000   1.0000   1.0000   1.0000
     1.0000   1.0000   1.0000   1.0000   1.0000   1.0000   1.0000   1.0000
     1.0000   0.0000   0.0000   0.0000   0.0000

          k = 0.0769 0.3109 0.0834 (  8390 PWs)   bands (ev):

  -119.9515 -74.2873 -74.2873 -74.2793  -7.3651  -6.7582  -1.3917  -1.3661
    -1.2723  -1.2676  -1.2292   0.7140   2.3133   2.7741   3.7021   4.1871
     4.6630   7.7904  10.4070  11.2282  11.7562

     occupation numbers 
     1.0000   1.0000   1.0000   1.0000   1.0000   1.0000   1.0000   1.0000
     1.0000   1.0000   1.0000   1.0000   1.0000   1.0000   1.0000   1.0000
     1.0000   0.0000   0.0000   0.0000   0.0000

          k = 0.0769 0.3109 0.1668 (  8398 PWs)   bands (ev):

  -119.9515 -74.2873 -74.2873 -74.2793  -7.3256  -6.8087  -1.3916  -1.3748
    -1.2700  -1.2695  -1.2292   0.7531   2.4085   2.8769   3.7474   3.9347
     4.5781   7.6986  10.6254  11.1512  11.7595

     occupation numbers 
     1.0000   1.0000   1.0000   1.0000   1.0000   1.0000   1.0000   1.0000
     1.0000   1.0000   1.0000   1.0000   1.0000   1.0000   1.0000   1.0000
     1.0000   0.0000   0.0000   0.0000   0.0000

          k = 0.0769 0.3109 0.2502 (  8396 PWs)   bands (ev):

  -119.9515 -74.2873 -74.2873 -74.2793  -7.2856  -6.8581  -1.3907  -1.3775
    -1.2725  -1.2674  -1.2294   0.8245   2.2921   3.1482   3.6387   3.8667
     4.4811   7.7516  10.6034  11.0905  11.6452

     occupation numbers 
     1.0000   1.0000   1.0000   1.0000   1.0000   1.0000   1.0000   1.0000
     1.0000   1.0000   1.0000   1.0000   1.0000   1.0000   1.0000   1.0000
     1.0000   0.0000   0.0000   0.0000   0.0000

          k = 0.0769 0.3997 0.0000 (  8411 PWs)   bands (ev):

  -119.9515 -74.2873 -74.2873 -74.2793  -7.1541  -6.6829  -1.3883  -1.3447
    -1.2789  -1.2339  -1.2110   0.5653   1.7328   2.5317   3.2592   4.2515
     4.5597   7.5284  10.2426  10.9058  11.4034

     occupation numbers 
     1.0000   1.0000   1.0000   1.0000   1.0000   1.0000   1.0000   1.0000
     1.0000   1.0000   1.0000   1.0000   1.0000   1.0000   1.0000   1.0000
     1.0000   0.0000   0.0000   0.0000   0.0000

          k = 0.0769 0.3997 0.0834 (  8405 PWs)   bands (ev):

  -119.9515 -74.2873 -74.2873 -74.2793  -7.1442  -6.6938  -1.3884  -1.3505
    -1.2835  -1.2343  -1.2114   0.5008   1.8642   2.5795   3.3221   4.0768
     4.5708   7.3885  10.2807  11.1669  11.4795

     occupation numbers 
     1.0000   1.0000   1.0000   1.0000   1.0000   1.0000   1.0000   1.0000
     1.0000   1.0000   1.0000   1.0000   1.0000   1.0000   1.0000   1.0000
     1.0000   0.0000   0.0000   0.0000   0.0000

          k = 0.0769 0.3997 0.1668 (  8399 PWs)   bands (ev):

  -119.9515 -74.2873 -74.2873 -74.2793  -7.1127  -6.7300  -1.3882  -1.3566
    -1.2846  -1.2364  -1.2122   0.4737   1.8310   2.8041   3.4092   3.9228
     4.5196   7.2853  10.4277  11.1165  11.5626

     occupation numbers 
     1.0000   1.0000   1.0000   1.0000   1.0000   1.0000   1.0000   1.0000
     1.0000   1.0000   1.0000   1.0000   1.0000   1.0000   1.0000   1.0000
     1.0000   0.0000   0.0000   0.0000   0.0000

          k = 0.0769 0.3997 0.2502 (  8397 PWs)   bands (ev):

  -119.9515 -74.2873 -74.2873 -74.2793  -7.0783  -6.7693  -1.3881  -1.3578
    -1.2816  -1.2391  -1.2127   0.4997   1.6935   3.0433   3.4040   3.9315
     4.4161   7.3360  10.3839  10.8320  11.6092

     occupation numbers 
     1.0000   1.0000   1.0000   1.0000   1.0000   1.0000   1.0000   1.0000
     1.0000   1.0000   1.0000   1.0000   1.0000   1.0000   1.0000   1.0000
     1.0000   0.0000   0.0000   0.0000   0.0000

          k = 0.0769 0.4885 0.0000 (  8394 PWs)   bands (ev):

  -119.9515 -74.2873 -74.2873 -74.2793  -6.9529  -6.6698  -1.3876  -1.3609
    -1.2826  -1.2063  -1.1811   0.3295   1.4930   2.5482   3.0159   4.0713
     4.4487   7.2461  10.1370  10.6518  11.4446

     occupation numbers 
     1.0000   1.0000   1.0000   1.0000   1.0000   1.0000   1.0000   1.0000
     1.0000   1.0000   1.0000   1.0000   1.0000   1.0000   1.0000   1.0000
     1.0000   0.0000   0.0000   0.0000   0.0000

          k = 0.0769 0.4885 0.0834 (  8406 PWs)   bands (ev):

  -119.9515 -74.2873 -74.2873 -74.2793  -6.9480  -6.6738  -1.3873  -1.3638
    -1.2856  -1.2065  -1.1840   0.2807   1.5101   2.6313   3.0894   3.9906
     4.4593   7.1443  10.1238  10.8877  11.4895

     occupation numbers 
     1.0000   1.0000   1.0000   1.0000   1.0000   1.0000   1.0000   1.0000
     1.0000   1.0000   1.0000   1.0000   1.0000   1.0000   1.0000   1.0000
     1.0000   0.0000   0.0000   0.0000   0.0000

          k = 0.0769 0.4885 0.1668 (  8404 PWs)   bands (ev):

  -119.9515 -74.2873 -74.2873 -74.2793  -6.9265  -6.6953  -1.3873  -1.3670
    -1.2841  -1.2072  -1.1873   0.2415   1.4023   2.8125   3.2155   3.9775
     4.4471   7.0377  10.2101  11.0573  11.2395

     occupation numbers 
     1.0000   1.0000   1.0000   1.0000   1.0000   1.0000   1.0000   1.0000
     1.0000   1.0000   1.0000   1.0000   1.0000   1.0000   1.0000   1.0000
     1.0000   0.0000   0.0000   0.0000   0.0000

          k = 0.0769 0.4885 0.2502 (  8406 PWs)   bands (ev):

  -119.9515 -74.2873 -74.2873 -74.2793  -6.8998  -6.7228  -1.3879  -1.3680
    -1.2789  -1.2079  -1.1887   0.2409   1.2693   2.9665   3.2559   4.0845
     4.3787   7.0566  10.1563  10.6120  11.1635

     occupation numbers 
     1.0000   1.0000   1.0000   1.0000   1.0000   1.0000   1.0000   1.0000
     1.0000   1.0000   1.0000   1.0000   1.0000   1.0000   1.0000   1.0000
     1.0000   0.0000   0.0000   0.0000   0.0000

          k = 0.0769 0.5774 0.0000 (  8407 PWs)   bands (ev):

  -119.9515 -74.2873 -74.2873 -74.2793  -6.8533  -6.6888  -1.3845  -1.3783
    -1.2824  -1.1988  -1.1635   0.2338   1.3950   2.6221   2.9285   3.9700
     4.4064   7.1511  10.0884  10.5626  11.4679

     occupation numbers 
     1.0000   1.0000   1.0000   1.0000   1.0000   1.0000   1.0000   1.0000
     1.0000   1.0000   1.0000   1.0000   1.0000   1.0000   1.0000   1.0000
     1.0000   0.0000   0.0000   0.0000   0.0000

          k = 0.0769 0.5774 0.0834 (  8414 PWs)   bands (ev):

  -119.9515 -74.2873 -74.2873 -74.2793  -6.8462  -6.6951  -1.3848  -1.3787
    -1.2809  -1.1989  -1.1645   0.2159   1.3297   2.6852   2.9761   4.0359
     4.3891   7.0999  10.0486  10.7324  11.4869

     occupation numbers 
     1.0000   1.0000   1.0000   1.0000   1.0000   1.0000   1.0000   1.0000
     1.0000   1.0000   1.0000   1.0000   1.0000   1.0000   1.0000   1.0000
     1.0000   0.0000   0.0000   0.0000   0.0000

          k = 0.0769 0.5774 0.1668 (  8413 PWs)   bands (ev):

  -119.9515 -74.2873 -74.2873 -74.2793  -6.8276  -6.7121  -1.3853  -1.3805
    -1.2773  -1.1990  -1.1666   0.1807   1.1935   2.8222   3.0950   4.1271
     4.3838   7.0122  10.0513  10.7837  11.1990

     occupation numbers 
     1.0000   1.0000   1.0000   1.0000   1.0000   1.0000   1.0000   1.0000
     1.0000   1.0000   1.0000   1.0000   1.0000   1.0000   1.0000   1.0000
     1.0000   0.0000   0.0000   0.0000   0.0000

          k = 0.0769 0.5774 0.2502 (  8403 PWs)   bands (ev):

  -119.9515 -74.2873 -74.2873 -74.2793  -6.8069  -6.7314  -1.3850  -1.3830
    -1.2740  -1.1991  -1.1682   0.1571   1.0921   2.9382   3.1840   4.2110
     4.3475   6.9894   9.9602  10.5240  11.0520

     occupation numbers 
     1.0000   1.0000   1.0000   1.0000   1.0000   1.0000   1.0000   1.0000
     1.0000   1.0000   1.0000   1.0000   1.0000   1.0000   1.0000   1.0000
     1.0000   0.0000   0.0000   0.0000   0.0000

          k = 0.1538 0.2665 0.0000 (  8403 PWs)   bands (ev):

  -119.9515 -74.2873 -74.2873 -74.2793  -7.4111  -6.7487  -1.3944  -1.3551
    -1.2872  -1.2569  -1.2345   0.7467   2.4597   2.5494   4.0499   4.0545
     4.6396   8.1830  10.6124  10.8970  11.4553

     occupation numbers 
     1.0000   1.0000   1.0000   1.0000   1.0000   1.0000   1.0000   1.0000
     1.0000   1.0000   1.0000   1.0000   1.0000   1.0000   1.0000   1.0000
     1.0000   0.0000   0.0000   0.0000   0.0000

          k = 0.1538 0.2665 0.0834 (  8389 PWs)   bands (ev):

  -119.9515 -74.2873 -74.2873 -74.2793  -7.3949  -6.7703  -1.3942  -1.3595
    -1.2855  -1.2576  -1.2344   0.7788   2.4359   2.6419   3.8769   4.1331
     4.6077   8.1677  10.4880  10.9969  11.5875

     occupation numbers 
     1.0000   1.0000   1.0000   1.0000   1.0000   1.0000   1.0000   1.0000
     1.0000   1.0000   1.0000   1.0000   1.0000   1.0000   1.0000   1.0000
     1.0000   0.0000   0.0000   0.0000   0.0000

          k = 0.1538 0.2665 0.1668 (  8403 PWs)   bands (ev):

  -119.9515 -74.2873 -74.2873 -74.2793  -7.3538  -6.8236  -1.3935  -1.3686
    -1.2823  -1.2590  -1.2342   0.8522   2.4266   2.8251   3.6897   4.1298
     4.4825   8.1391  10.4622  11.0726  11.7676

     occupation numbers 
     1.0000   1.0000   1.0000   1.0000   1.0000   1.0000   1.0000   1.0000
     1.0000   1.0000   1.0000   1.0000   1.0000   1.0000   1.0000   1.0000
     1.0000   0.0000   0.0000   0.0000   0.0000

          k = 0.1538 0.2665 0.2502 (  8394 PWs)   bands (ev):

  -119.9515 -74.2873 -74.2873 -74.2793  -7.3140  -6.8730  -1.3924  -1.3759
    -1.2801  -1.2601  -1.2341   0.9128   2.4282   2.9917   3.5758   4.1477
     4.2844   8.1258  10.5137  11.2190  11.7571

     occupation numbers 
     1.0000   1.0000   1.0000   1.0000   1.0000   1.0000   1.0000   1.0000
     1.0000   1.0000   1.0000   1.0000   1.0000   1.0000   1.0000   1.0000
     1.0000   0.0000   0.0000   0.0000   0.0000

          k = 0.1538 0.3553 0.0000 (  8402 PWs)   bands (ev):

  -119.9515 -74.2873 -74.2873 -74.2793  -7.2033  -6.6872  -1.3921  -1.3305
    -1.2653  -1.2564  -1.2217   0.6544   1.9834   2.3354   3.4817   3.9223
     4.5189   7.8821  10.9187  11.0483  11.5280

     occupation numbers 
     1.0000   1.0000   1.0000   1.0000   1.0000   1.0000   1.0000   1.0000
     1.0000   1.0000   1.0000   1.0000   1.0000   1.0000   1.0000   1.0000
     1.0000   0.0000   0.0000   0.0000   0.0000

          k = 0.1538 0.3553 0.0834 (  8411 PWs)   bands (ev):

  -119.9515 -74.2873 -74.2873 -74.2793  -7.1906  -6.7023  -1.3917  -1.3359
    -1.2656  -1.2578  -1.2214   0.6285   2.0894   2.3376   3.5709   3.7378
     4.5429   7.8360  10.6568  11.2009  11.8998

     occupation numbers 
     1.0000   1.0000   1.0000   1.0000   1.0000   1.0000   1.0000   1.0000
     1.0000   1.0000   1.0000   1.0000   1.0000   1.0000   1.0000   1.0000
     1.0000   0.0000   0.0000   0.0000   0.0000

          k = 0.1538 0.3553 0.1668 (  8407 PWs)   bands (ev):

  -119.9515 -74.2873 -74.2873 -74.2793  -7.1562  -6.7432  -1.3905  -1.3438
    -1.2657  -1.2597  -1.2214   0.6255   2.0390   2.5396   3.5565   3.6716
     4.4986   7.8235  10.5233  11.1952  11.9662

     occupation numbers 
     1.0000   1.0000   1.0000   1.0000   1.0000   1.0000   1.0000   1.0000
     1.0000   1.0000   1.0000   1.0000   1.0000   1.0000   1.0000   1.0000
     1.0000   0.0000   0.0000   0.0000   0.0000

          k = 0.1538 0.3553 0.2502 (  8405 PWs)   bands (ev):

  -119.9515 -74.2873 -74.2873 -74.2793  -7.1213  -6.7838  -1.3892  -1.3482
    -1.2653  -1.2611  -1.2217   0.6477   1.9454   2.7062   3.4057   3.9053
     4.3285   7.8745  10.4217  11.2736  11.6896

     occupation numbers 
     1.0000   1.0000   1.0000   1.0000   1.0000   1.0000   1.0000   1.0000
     1.0000   1.0000   1.0000   1.0000   1.0000   1.0000   1.0000   1.0000
     1.0000   0.0000   0.0000   0.0000   0.0000

          k = 0.1538 0.4441 0.0000 (  8403 PWs)   bands (ev):

  -119.9515 -74.2873 -74.2873 -74.2793  -6.9971  -6.6542  -1.3888  -1.3296
    -1.2668  -1.2312  -1.2018   0.4345   1.6839   2.3930   3.0029   3.8359
     4.3049   7.5595  10.9069  10.9823  11.4951

     occupation numbers 
     1.0000   1.0000   1.0000   1.0000   1.0000   1.0000   1.0000   1.0000
     1.0000   1.0000   1.0000   1.0000   1.0000   1.0000   1.0000   1.0000
     1.0000   0.0000   0.0000   0.0000   0.0000

          k = 0.1538 0.4441 0.0834 (  8407 PWs)   bands (ev):

  -119.9515 -74.2873 -74.2873 -74.2793  -6.9894  -6.6619  -1.3878  -1.3326
    -1.2700  -1.2319  -1.2028   0.3959   1.7410   2.3571   3.1495   3.6739
     4.3852   7.5289  10.7045  11.0774  11.6569

     occupation numbers 
     1.0000   1.0000   1.0000   1.0000   1.0000   1.0000   1.0000   1.0000
     1.0000   1.0000   1.0000   1.0000   1.0000   1.0000   1.0000   1.0000
     1.0000   0.0000   0.0000   0.0000   0.0000

          k = 0.1538 0.4441 0.1668 (  8411 PWs)   bands (ev):

  -119.9515 -74.2873 -74.2873 -74.2793  -6.9644  -6.6883  -1.3861  -1.3362
    -1.2706  -1.2336  -1.2041   0.3726   1.6576   2.4275   3.2317   3.6851
     4.4447   7.5344  10.5862  11.0344  11.7168

     occupation numbers 
     1.0000   1.0000   1.0000   1.0000   1.0000   1.0000   1.0000   1.0000
     1.0000   1.0000   1.0000   1.0000   1.0000   1.0000   1.0000   1.0000
     1.0000   0.0000   0.0000   0.0000   0.0000

          k = 0.1538 0.4441 0.2502 (  8406 PWs)   bands (ev):

  -119.9515 -74.2873 -74.2873 -74.2793  -6.9366  -6.7180  -1.3851  -1.3373
    -1.2679  -1.2356  -1.2049   0.3820   1.5282   2.5222   3.1325   3.9736
     4.3711   7.6048  10.3346  11.0088  11.4995

     occupation numbers 
     1.0000   1.0000   1.0000   1.0000   1.0000   1.0000   1.0000   1.0000
     1.0000   1.0000   1.0000   1.0000   1.0000   1.0000   1.0000   1.0000
     1.0000   0.0000   0.0000   0.0000   0.0000

          k = 0.1538 0.5329 0.0000 (  8408 PWs)   bands (ev):

  -119.9515 -74.2873 -74.2873 -74.2793  -6.8435  -6.6652  -1.3791  -1.3485
[...]
     1.0000   0.0000   0.0000   0.0000   0.0000

          k =-0.0769 0.2221-0.1668 (  8382 PWs)   bands (ev):

  -119.9516 -74.2875 -74.2875 -74.2794  -7.5205  -6.9018  -1.3984  -1.3913
    -1.3035  -1.2550  -1.2394   0.9529   2.7610   3.3711   3.8499   4.3925
     4.6289   8.3428  10.2120  10.8694  11.4249

     occupation numbers 
     1.0000   1.0000   1.0000   1.0000   1.0000   1.0000   1.0000   1.0000
     1.0000   1.0000   1.0000   1.0000   1.0000   1.0000   1.0000   1.0000
     1.0000   0.0000   0.0000   0.0000   0.0000

          k =-0.0769 0.2221-0.2502 (  8395 PWs)   bands (ev):

  -119.9516 -74.2875 -74.2875 -74.2794  -7.4776  -6.9579  -1.3983  -1.3977
    -1.2987  -1.2558  -1.2394   1.0876   2.8039   3.4977   3.6348   4.2358
     4.5791   8.2753  10.3876  11.1034  11.4358

     occupation numbers 
     1.0000   1.0000   1.0000   1.0000   1.0000   1.0000   1.0000   1.0000
     1.0000   1.0000   1.0000   1.0000   1.0000   1.0000   1.0000   1.0000
     1.0000   0.0000   0.0000   0.0000   0.0000

          k =-0.0769 0.3109-0.0834 (  8390 PWs)   bands (ev):

  -119.9516 -74.2875 -74.2875 -74.2794  -7.3621  -6.7628  -1.3909  -1.3556
    -1.2774  -1.2646  -1.2297   0.8021   2.0358   2.8651   3.5739   4.5126
     4.5919   8.0435  10.0868  11.0737  11.2734

     occupation numbers 
     1.0000   1.0000   1.0000   1.0000   1.0000   1.0000   1.0000   1.0000
     1.0000   1.0000   1.0000   1.0000   1.0000   1.0000   1.0000   1.0000
     1.0000   0.0000   0.0000   0.0000   0.0000

          k =-0.0769 0.3109-0.1668 (  8398 PWs)   bands (ev):

  -119.9516 -74.2875 -74.2875 -74.2794  -7.3211  -6.8152  -1.3906  -1.3623
    -1.2769  -1.2648  -1.2298   0.8722   2.0331   3.0089   3.5159   4.3803
     4.5167   8.0264  10.0463  11.0991  11.3181

     occupation numbers 
     1.0000   1.0000   1.0000   1.0000   1.0000   1.0000   1.0000   1.0000
     1.0000   1.0000   1.0000   1.0000   1.0000   1.0000   1.0000   1.0000
     1.0000   0.0000   0.0000   0.0000   0.0000

          k =-0.0769 0.3109-0.2502 (  8396 PWs)   bands (ev):

  -119.9516 -74.2875 -74.2875 -74.2794  -7.2831  -6.8615  -1.3905  -1.3721
    -1.2750  -1.2659  -1.2297   0.8809   2.1308   3.2163   3.4753   4.0962
     4.4626   7.8999  10.2606  11.1372  11.5166

     occupation numbers 
     1.0000   1.0000   1.0000   1.0000   1.0000   1.0000   1.0000   1.0000
     1.0000   1.0000   1.0000   1.0000   1.0000   1.0000   1.0000   1.0000
     1.0000   0.0000   0.0000   0.0000   0.0000

          k =-0.0769 0.3997-0.0834 (  8405 PWs)   bands (ev):

  -119.9516 -74.2875 -74.2875 -74.2794  -7.1379  -6.7026  -1.3883  -1.3430
    -1.2739  -1.2364  -1.2117   0.6197   1.5832   2.6283   3.2176   4.4031
     4.4899   7.5984  10.1090  10.8956  11.1664

     occupation numbers 
     1.0000   1.0000   1.0000   1.0000   1.0000   1.0000   1.0000   1.0000
     1.0000   1.0000   1.0000   1.0000   1.0000   1.0000   1.0000   1.0000
     1.0000   0.0000   0.0000   0.0000   0.0000

          k =-0.0769 0.3997-0.1668 (  8399 PWs)   bands (ev):

  -119.9516 -74.2875 -74.2875 -74.2794  -7.1031  -6.7427  -1.3884  -1.3464
    -1.2724  -1.2401  -1.2126   0.6169   1.5226   2.8438   3.2055   4.3763
     4.4238   7.5885   9.9215  10.8687  11.2492

     occupation numbers 
     1.0000   1.0000   1.0000   1.0000   1.0000   1.0000   1.0000   1.0000
     1.0000   1.0000   1.0000   1.0000   1.0000   1.0000   1.0000   1.0000
     1.0000   0.0000   0.0000   0.0000   0.0000

          k =-0.0769 0.3997-0.2502 (  8397 PWs)   bands (ev):

  -119.9516 -74.2875 -74.2875 -74.2794  -7.0729  -6.7761  -1.3883  -1.3529
    -1.2762  -1.2411  -1.2130   0.5617   1.5684   3.1062   3.2138   4.1849
     4.3633   7.4873   9.9943  10.8747  11.5077

     occupation numbers 
     1.0000   1.0000   1.0000   1.0000   1.0000   1.0000   1.0000   1.0000
     1.0000   1.0000   1.0000   1.0000   1.0000   1.0000   1.0000   1.0000
     1.0000   0.0000   0.0000   0.0000   0.0000

          k =-0.0769 0.4885-0.0834 (  8406 PWs)   bands (ev):

  -119.9516 -74.2875 -74.2875 -74.2794  -6.9391  -6.6847  -1.3883  -1.3603
    -1.2778  -1.2066  -1.1810   0.3475   1.3671   2.6340   3.0040   4.2279
     4.3973   7.2558  10.0644  10.7378  11.2744

     occupation numbers 
     1.0000   1.0000   1.0000   1.0000   1.0000   1.0000   1.0000   1.0000
     1.0000   1.0000   1.0000   1.0000   1.0000   1.0000   1.0000   1.0000
     1.0000   0.0000   0.0000   0.0000   0.0000

          k =-0.0769 0.4885-0.1668 (  8404 PWs)   bands (ev):

  -119.9516 -74.2875 -74.2875 -74.2794  -6.9126  -6.7117  -1.3888  -1.3621
    -1.2740  -1.2072  -1.1839   0.3228   1.2428   2.8430   3.0404   4.2842
     4.3795   7.2114   9.9382  10.6930  11.2086

     occupation numbers 
     1.0000   1.0000   1.0000   1.0000   1.0000   1.0000   1.0000   1.0000
     1.0000   1.0000   1.0000   1.0000   1.0000   1.0000   1.0000   1.0000
     1.0000   0.0000   0.0000   0.0000   0.0000

          k =-0.0769 0.4885-0.2502 (  8406 PWs)   bands (ev):

  -119.9516 -74.2875 -74.2875 -74.2794  -6.8917  -6.7320  -1.3888  -1.3657
    -1.2743  -1.2079  -1.1874   0.2769   1.2027   3.0165   3.1254   4.2590
     4.3206   7.1516   9.8801  10.6156  11.2317

     occupation numbers 
     1.0000   1.0000   1.0000   1.0000   1.0000   1.0000   1.0000   1.0000
     1.0000   1.0000   1.0000   1.0000   1.0000   1.0000   1.0000   1.0000
     1.0000   0.0000   0.0000   0.0000   0.0000

          k =-0.1538 0.3553-0.0834 (  8411 PWs)   bands (ev):

  -119.9516 -74.2875 -74.2875 -74.2794  -7.1884  -6.7055  -1.3917  -1.3310
    -1.2650  -1.2572  -1.2222   0.6834   1.8529   2.5081   3.3418   4.0149
     4.5159   7.9510  10.4560  11.2366  11.4707

     occupation numbers 
     1.0000   1.0000   1.0000   1.0000   1.0000   1.0000   1.0000   1.0000
     1.0000   1.0000   1.0000   1.0000   1.0000   1.0000   1.0000   1.0000
     1.0000   0.0000   0.0000   0.0000   0.0000

          k =-0.1538 0.3553-0.1668 (  8407 PWs)   bands (ev):

  -119.9516 -74.2875 -74.2875 -74.2794  -7.1528  -6.7479  -1.3907  -1.3373
    -1.2646  -1.2596  -1.2224   0.6937   1.8112   2.7169   3.2332   4.0216
     4.4643   7.9975  10.1439  11.3670  11.4848

     occupation numbers 
     1.0000   1.0000   1.0000   1.0000   1.0000   1.0000   1.0000   1.0000
     1.0000   1.0000   1.0000   1.0000   1.0000   1.0000   1.0000   1.0000
     1.0000   0.0000   0.0000   0.0000   0.0000

          k =-0.1538 0.3553-0.2502 (  8405 PWs)   bands (ev):

  -119.9516 -74.2875 -74.2875 -74.2794  -7.1193  -6.7862  -1.3894  -1.3452
    -1.2646  -1.2615  -1.2222   0.6782   1.8533   2.7898   3.2725   4.0836
     4.2652   7.9615  10.1958  11.4361  11.6338

     occupation numbers 
     1.0000   1.0000   1.0000   1.0000   1.0000   1.0000   1.0000   1.0000
     1.0000   1.0000   1.0000   1.0000   1.0000   1.0000   1.0000   1.0000
     1.0000   0.0000   0.0000   0.0000   0.0000

          k =-0.1538 0.4441-0.0834 (  8407 PWs)   bands (ev):

  -119.9516 -74.2875 -74.2875 -74.2794  -6.9840  -6.6687  -1.3889  -1.3289
    -1.2633  -1.2324  -1.2023   0.4599   1.5387   2.5651   2.8719   3.9415
     4.3357   7.6324  10.6096  11.0231  11.3595

     occupation numbers 
     1.0000   1.0000   1.0000   1.0000   1.0000   1.0000   1.0000   1.0000
     1.0000   1.0000   1.0000   1.0000   1.0000   1.0000   1.0000   1.0000
     1.0000   0.0000   0.0000   0.0000   0.0000

          k =-0.1538 0.4441-0.1668 (  8411 PWs)   bands (ev):

  -119.9516 -74.2875 -74.2875 -74.2794  -6.9562  -6.6984  -1.3878  -1.3309
    -1.2616  -1.2349  -1.2037   0.4526   1.4386   2.6783   2.8677   3.9758
     4.4161   7.7108  10.1400  11.2435  11.2811

     occupation numbers 
     1.0000   1.0000   1.0000   1.0000   1.0000   1.0000   1.0000   1.0000
     1.0000   1.0000   1.0000   1.0000   1.0000   1.0000   1.0000   1.0000
     1.0000   0.0000   0.0000   0.0000   0.0000

          k =-0.1538 0.4441-0.2502 (  8406 PWs)   bands (ev):

  -119.9516 -74.2875 -74.2875 -74.2794  -6.9319  -6.7235  -1.3862  -1.3347
    -1.2637  -1.2364  -1.2049   0.4178   1.4380   2.6147   3.0059   4.0964
     4.3400   7.7044  10.0295  11.2889  11.3808

     occupation numbers 
     1.0000   1.0000   1.0000   1.0000   1.0000   1.0000   1.0000   1.0000
     1.0000   1.0000   1.0000   1.0000   1.0000   1.0000   1.0000   1.0000
     1.0000   0.0000   0.0000   0.0000   0.0000

          k =-0.1538 0.5329-0.0834 (  8401 PWs)   bands (ev):

  -119.9516 -74.2875 -74.2875 -74.2794  -6.8339  -6.6746  -1.3796  -1.3474
    -1.2703  -1.2135  -1.1829   0.2733   1.4492   2.5395   2.7435   3.9399
     4.1110   7.4107  10.7296  10.8918  11.5089

     occupation numbers 
     1.0000   1.0000   1.0000   1.0000   1.0000   1.0000   1.0000   1.0000
     1.0000   1.0000   1.0000   1.0000   1.0000   1.0000   1.0000   1.0000
     1.0000   0.0000   0.0000   0.0000   0.0000

          k =-0.1538 0.5329-0.1668 (  8414 PWs)   bands (ev):

  -119.9516 -74.2875 -74.2875 -74.2794  -6.8147  -6.6926  -1.3787  -1.3479
    -1.2671  -1.2140  -1.1842   0.2607   1.3131   2.4763   2.8815   3.9870
     4.3133   7.4665  10.3776  11.0177  11.2431

     occupation numbers 
     1.0000   1.0000   1.0000   1.0000   1.0000   1.0000   1.0000   1.0000
     1.0000   1.0000   1.0000   1.0000   1.0000   1.0000   1.0000   1.0000
     1.0000   0.0000   0.0000   0.0000   0.0000

          k =-0.1538 0.5329-0.2502 (  8407 PWs)   bands (ev):

  -119.9516 -74.2875 -74.2875 -74.2794  -6.7983  -6.7077  -1.3766  -1.3502
    -1.2657  -1.2144  -1.1859   0.2408   1.2412   2.4564   2.9227   4.1549
     4.3619   7.4931  10.0842  10.9522  11.2627

     occupation numbers 
     1.0000   1.0000   1.0000   1.0000   1.0000   1.0000   1.0000   1.0000
     1.0000   1.0000   1.0000   1.0000   1.0000   1.0000   1.0000   1.0000
     1.0000   0.0000   0.0000   0.0000   0.0000

          k =-0.2308 0.4885-0.0834 (  8404 PWs)   bands (ev):

  -119.9516 -74.2875 -74.2875 -74.2794  -6.8394  -6.6506  -1.3749  -1.3143
    -1.2525  -1.2334  -1.2106   0.3306   1.6226   2.2756   2.7338   3.5642
     4.1551   7.5593  10.9437  11.6128  11.9816

     occupation numbers 
     1.0000   1.0000   1.0000   1.0000   1.0000   1.0000   1.0000   1.0000
     1.0000   1.0000   1.0000   1.0000   1.0000   1.0000   1.0000   1.0000
     1.0000   0.0000   0.0000   0.0000   0.0000

          k =-0.2308 0.4885-0.1668 (  8409 PWs)   bands (ev):

  -119.9516 -74.2875 -74.2875 -74.2794  -6.8210  -6.6683  -1.3720  -1.3147
    -1.2511  -1.2345  -1.2107   0.3404   1.4997   2.1968   2.6743   3.8040
     4.3392   7.7660  10.3254  11.3069  11.8595

     occupation numbers 
     1.0000   1.0000   1.0000   1.0000   1.0000   1.0000   1.0000   1.0000
     1.0000   1.0000   1.0000   1.0000   1.0000   1.0000   1.0000   1.0000
     1.0000   0.0000   0.0000   0.0000   0.0000

          k =-0.2308 0.4885-0.2502 (  8411 PWs)   bands (ev):

  -119.9516 -74.2875 -74.2875 -74.2794  -6.8042  -6.6842  -1.3686  -1.3162
    -1.2511  -1.2356  -1.2108   0.3390   1.4595   2.0881   2.6369   4.0842
     4.3961   7.9090  10.0657  10.8840  11.8619

     occupation numbers 
     1.0000   1.0000   1.0000   1.0000   1.0000   1.0000   1.0000   1.0000
     1.0000   1.0000   1.0000   1.0000   1.0000   1.0000   1.0000   1.0000
     1.0000   0.0000   0.0000   0.0000   0.0000

     the Fermi energy is     6.0386 ev

!    total energy              =    -469.71511080 Ry
     estimated scf accuracy    <          4.2E-09 Ry
     smearing contrib. (-TS)   =       0.00000000 Ry
     internal energy E=F+TS    =    -469.71511081 Ry

     The total energy is F=E-TS. E is the sum of the following terms:
     one-electron contribution =    -477.62632651 Ry
     hartree contribution      =     244.95566634 Ry
     xc contribution           =     -60.35116385 Ry
     ewald contribution        =    -176.69328679 Ry

     total magnetization       =    -0.00 Bohr mag/cell
     absolute magnetization    =     0.00 Bohr mag/cell

     convergence has been achieved in  18 iterations

     Forces acting on atoms (cartesian axes, Ry/au):

     atom    1 type  2   force =     0.00000000    0.00000000    0.00000000
     atom    2 type  1   force =     0.00000000    0.00000000   -0.00105281
     atom    3 type  1   force =     0.00000000    0.00000000    0.00105281
     The non-local contrib.  to forces
     atom    1 type  2   force =     0.00000000   -0.00000000    0.00000000
     atom    2 type  1   force =     0.00000000    0.00000000   -0.09073888
     atom    3 type  1   force =     0.00000000    0.00000000    0.09073888
     The ionic contribution  to forces
     atom    1 type  2   force =     0.00000000   -0.00000000    0.00000000
     atom    2 type  1   force =     0.00000000   -0.00000000   14.73461261
     atom    3 type  1   force =    -0.00000000    0.00000000  -14.73461261
     The local contribution  to forces
     atom    1 type  2   force =     0.00000000    0.00000000   -0.00000000
     atom    2 type  1   force =    -0.00000000   -0.00000000  -14.64443339
     atom    3 type  1   force =     0.00000000    0.00000000   14.64443339
     The core correction contribution to forces
     atom    1 type  2   force =     0.00000000    0.00000000    0.00000000
     atom    2 type  1   force =     0.00000000    0.00000000   -0.00049875
     atom    3 type  1   force =     0.00000000   -0.00000000    0.00049875
     The Hubbard contrib.    to forces
     atom    1 type  2   force =     0.00000000    0.00000000    0.00000000
     atom    2 type  1   force =     0.00000000    0.00000000    0.00000000
     atom    3 type  1   force =     0.00000000    0.00000000    0.00000000
     The SCF correction term to forces
     atom    1 type  2   force =    -0.00000000   -0.00000000   -0.00000000
     atom    2 type  1   force =    -0.00000000   -0.00000000    0.00000560
     atom    3 type  1   force =     0.00000000    0.00000000   -0.00000560

     Total force =     0.001489     Total SCF correction =     0.000008


     Computing stress (Cartesian axis) and pressure

          total   stress  (Ry/bohr**3)                   (kbar)     P=       -1.70
  -0.00001285  -0.00000000   0.00000000           -1.89       -0.00        0.00
   0.00000000  -0.00001285  -0.00000000            0.00       -1.89       -0.00
   0.00000000  -0.00000000  -0.00000907            0.00       -0.00       -1.33

     kinetic stress (kbar)  29968.90      0.00      0.00
                                0.00  29968.90     -0.00
                                0.00     -0.00  30002.21

     local   stress (kbar) -36671.00      0.00      0.00
                                0.00 -36671.00      0.00
                                0.00      0.00  16663.33

     nonloc. stress (kbar) -12255.97      0.00      0.00
                                0.00 -12255.97      0.00
                                0.00      0.00 -12247.27

     hartree stress (kbar)  27015.84     -0.00     -0.00
                               -0.00  27015.84      0.00
                               -0.00      0.00   1750.99

     exc-cor stress (kbar)   -703.78     -0.00     -0.00
                               -0.00   -703.78     -0.00
                               -0.00     -0.00   -704.70

     corecor stress (kbar)  -3312.96     -0.00      0.00
                               -0.00  -3312.96      0.00
                                0.00      0.00  -3314.16

     ewald   stress (kbar)  -4042.93     -0.00     -0.00
                               -0.00  -4042.93     -0.00
                               -0.00     -0.00 -32151.73

     hubbard stress (kbar)      0.00      0.00      0.00
                                0.00      0.00      0.00
                                0.00      0.00      0.00

     DFT-D   stress (kbar)      0.00      0.00      0.00
                                0.00      0.00      0.00
                                0.00      0.00      0.00

     XDM     stress (kbar)      0.00      0.00      0.00
                                0.00      0.00      0.00
                                0.00      0.00      0.00

     dft-nl  stress (kbar)      0.00      0.00      0.00
                                0.00      0.00      0.00
                                0.00      0.00      0.00

     TS-vdW  stress (kbar)      0.00      0.00      0.00
                                0.00      0.00      0.00
                                0.00      0.00      0.00

     MDB     stress (kbar)      0.00      0.00      0.00
                                0.00      0.00      0.00
                                0.00      0.00      0.00

     3D-RISM stress (kbar)      0.00      0.00      0.00
                                0.00      0.00      0.00
                                0.00      0.00      0.00


     Writing all to output data dir ./out/aiida.save/ :
     XML data file, charge density, pseudopotentials, collected wavefunctions
 
     init_run     :      0.41s CPU      0.88s WALL (       1 calls)
     electrons    :      9.26s CPU     10.60s WALL (       1 calls)
     forces       :      0.06s CPU      0.07s WALL (       1 calls)
     stress       :      0.20s CPU      0.24s WALL (       1 calls)

     Called by init_run:
     wfcinit      :      0.16s CPU      0.48s WALL (       1 calls)
     wfcinit:atom :      0.02s CPU      0.02s WALL (      63 calls)
     wfcinit:wfcr :      0.10s CPU      0.39s WALL (      63 calls)
     potinit      :      0.02s CPU      0.04s WALL (       1 calls)
     hinit0       :      0.19s CPU      0.26s WALL (       1 calls)

     Called by electrons:
     c_bands      :      7.79s CPU      8.95s WALL (      19 calls)
     sum_band     :      1.18s CPU      1.32s WALL (      19 calls)
     v_of_rho     :      0.03s CPU      0.06s WALL (      19 calls)
     v_h          :      0.00s CPU      0.00s WALL (      19 calls)
     v_xc         :      0.03s CPU      0.05s WALL (      21 calls)
     mix_rho      :      0.19s CPU      0.21s WALL (      19 calls)

     Called by c_bands:
     init_us_2    :      0.48s CPU      0.54s WALL (    2583 calls)
     cegterg      :      5.74s CPU      6.31s WALL (    1197 calls)

     Called by sum_band:
     sum_band:wei :      0.07s CPU      0.10s WALL (      19 calls)
     sum_band:loo :      1.00s CPU      1.09s WALL (      19 calls)
     sum_band:buf :      0.21s CPU      0.23s WALL (    1197 calls)
     sum_band:ini :      0.22s CPU      0.24s WALL (    1197 calls)

     Called by *egterg:
     cdiaghg      :      1.58s CPU      1.86s WALL (    3498 calls)
                                        1.84s GPU  (    3498 calls)
     cegterg:over :      0.56s CPU      0.59s WALL (    2364 calls)
     cegterg:upda :      0.42s CPU      0.47s WALL (    2364 calls)
     cegterg:last :      0.09s CPU      0.10s WALL (    1902 calls)
     h_psi        :      2.59s CPU      3.05s WALL (    3624 calls)
     g_psi        :      0.04s CPU      0.04s WALL (    2364 calls)

     Called by h_psi:
     h_psi:calbec :      0.13s CPU      0.30s WALL (    3624 calls)
     vloc_psi     :      1.88s CPU      2.15s WALL (    3624 calls)
                                        2.13s GPU  (    3624 calls)
     add_vuspsi   :      0.44s CPU      0.49s WALL (    3624 calls)

     General routines
     calbec       :      0.15s CPU      0.32s WALL (    4695 calls)
     fft          :      0.05s CPU      0.14s WALL (     403 calls)
                                        0.14s GPU  (     403 calls)
     ffts         :      0.00s CPU      0.00s WALL (      38 calls)
                                        0.00s GPU  (      38 calls)
     fftw         :      0.20s CPU      1.30s WALL (   14556 calls)
                                        1.22s GPU  (   14556 calls)
 
     Parallel routines
 
     PWSCF        :     11.15s CPU     12.51s WALL

 
   This run was terminated on:  15:33: 5   3Jun2026            

=------------------------------------------------------------------------------=
   JOB DONE.
=------------------------------------------------------------------------------=
