File written on 18Mar2019 at 17:07:06

calc_only_A  :  F

begin real_lattice
  -3.5366035   2.0418424   0.0000000
   3.5365955   2.0418223   0.0000000
   0.0000000   0.0000000  26.3881669
end real_lattice

begin recip_lattice
  -0.8883045   1.5386127  -0.0000000
   0.8883132   1.5386161  -0.0000000
  -0.0000000  -0.0000000   0.2381062
end recip_lattice

begin kpoints
    32
    0.00000000    0.00000000    0.00000000
    0.00000000    0.00000000    0.12500000
    0.00000000    0.00000000    0.25000000
    0.00000000    0.00000000    0.37500000
    0.00000000    0.00000000    0.50000000
    0.00000000    0.00000000    0.62500000
    0.00000000    0.00000000    0.75000000
    0.00000000    0.00000000    0.87500000
    0.00000000    0.50000000    0.00000000
    0.00000000    0.50000000    0.12500000
    0.00000000    0.50000000    0.25000000
    0.00000000    0.50000000    0.37500000
    0.00000000    0.50000000    0.50000000
    0.00000000    0.50000000    0.62500000
    0.00000000    0.50000000    0.75000000
    0.00000000    0.50000000    0.87500000
    0.50000000    0.00000000    0.00000000
    0.50000000    0.00000000    0.12500000
    0.50000000    0.00000000    0.25000000
    0.50000000    0.00000000    0.37500000
    0.50000000    0.00000000    0.50000000
    0.50000000    0.00000000    0.62500000
    0.50000000    0.00000000    0.75000000
    0.50000000    0.00000000    0.87500000
    0.50000000    0.50000000    0.00000000
    0.50000000    0.50000000    0.12500000
    0.50000000    0.50000000    0.25000000
    0.50000000    0.50000000    0.37500000
    0.50000000    0.50000000    0.50000000
    0.50000000    0.50000000    0.62500000
    0.50000000    0.50000000    0.75000000
    0.50000000    0.50000000    0.87500000
end kpoints

begin projections
     0
end projections

begin auto_projections
    22
     0
end auto_projections

begin nnkpts
   8
     1     2      0   0   0
     1     8      0   0  -1
     1    25     -1   0   0
     1    25      0  -1   0
     1    17      0   0   0
     1    17     -1   0   0
     1     9      0   0   0
     1     9      0  -1   0
     2     1      0   0   0
     2     3      0   0   0
     2    26     -1   0   0
     2    26      0  -1   0
     2    18      0   0   0
     2    18     -1   0   0
     2    10      0   0   0
     2    10      0  -1   0
     3     2      0   0   0
     3     4      0   0   0
     3    27     -1   0   0
     3    27      0  -1   0
     3    19      0   0   0
     3    19     -1   0   0
     3    11      0   0   0
     3    11      0  -1   0
     4     3      0   0   0
     4     5      0   0   0
     4    28     -1   0   0
     4    28      0  -1   0
     4    20      0   0   0
     4    20     -1   0   0
     4    12      0   0   0
     4    12      0  -1   0
     5     4      0   0   0
     5     6      0   0   0
     5    29     -1   0   0
     5    29      0  -1   0
     5    21      0   0   0
     5    21     -1   0   0
     5    13      0   0   0
     5    13      0  -1   0
     6     5      0   0   0
     6     7      0   0   0
     6    30     -1   0   0
     6    30      0  -1   0
     6    22      0   0   0
     6    22     -1   0   0
     6    14      0   0   0
     6    14      0  -1   0
     7     6      0   0   0
     7     8      0   0   0
     7    31     -1   0   0
     7    31      0  -1   0
     7    23      0   0   0
     7    23     -1   0   0
     7    15      0   0   0
     7    15      0  -1   0
     8     7      0   0   0
     8     1      0   0   1
     8    32     -1   0   0
     8    32      0  -1   0
     8    24      0   0   0
     8    24     -1   0   0
     8    16      0   0   0
     8    16      0  -1   0
     9    10      0   0   0
     9    16      0   0  -1
     9    17      0   0   0
     9    17     -1   1   0
     9    25      0   0   0
     9    25     -1   0   0
     9     1      0   0   0
     9     1      0   1   0
    10     9      0   0   0
    10    11      0   0   0
    10    18      0   0   0
    10    18     -1   1   0
    10    26      0   0   0
    10    26     -1   0   0
    10     2      0   0   0
    10     2      0   1   0
    11    10      0   0   0
    11    12      0   0   0
    11    19      0   0   0
    11    19     -1   1   0
    11    27      0   0   0
    11    27     -1   0   0
    11     3      0   0   0
    11     3      0   1   0
    12    11      0   0   0
    12    13      0   0   0
    12    20      0   0   0
    12    20     -1   1   0
    12    28      0   0   0
    12    28     -1   0   0
    12     4      0   0   0
    12     4      0   1   0
    13    12      0   0   0
    13    14      0   0   0
    13    21      0   0   0
    13    21     -1   1   0
    13    29      0   0   0
    13    29     -1   0   0
    13     5      0   0   0
    13     5      0   1   0
    14    13      0   0   0
    14    15      0   0   0
    14    22      0   0   0
    14    22     -1   1   0
    14    30      0   0   0
    14    30     -1   0   0
    14     6      0   0   0
    14     6      0   1   0
    15    14      0   0   0
    15    16      0   0   0
    15    23      0   0   0
    15    23     -1   1   0
    15    31      0   0   0
    15    31     -1   0   0
    15     7      0   0   0
    15     7      0   1   0
    16    15      0   0   0
    16     9      0   0   1
    16    24      0   0   0
    16    24     -1   1   0
    16    32      0   0   0
    16    32     -1   0   0
    16     8      0   0   0
    16     8      0   1   0
    17    18      0   0   0
    17    24      0   0  -1
    17     9      0   0   0
    17     9      1  -1   0
    17     1      0   0   0
    17     1      1   0   0
    17    25      0   0   0
    17    25      0  -1   0
    18    17      0   0   0
    18    19      0   0   0
    18    10      0   0   0
    18    10      1  -1   0
    18     2      0   0   0
    18     2      1   0   0
    18    26      0   0   0
    18    26      0  -1   0
    19    18      0   0   0
    19    20      0   0   0
    19    11      0   0   0
    19    11      1  -1   0
    19     3      0   0   0
    19     3      1   0   0
    19    27      0   0   0
    19    27      0  -1   0
    20    19      0   0   0
    20    21      0   0   0
    20    12      0   0   0
    20    12      1  -1   0
    20     4      0   0   0
    20     4      1   0   0
    20    28      0   0   0
    20    28      0  -1   0
    21    20      0   0   0
    21    22      0   0   0
    21    13      0   0   0
    21    13      1  -1   0
    21     5      0   0   0
    21     5      1   0   0
    21    29      0   0   0
    21    29      0  -1   0
    22    21      0   0   0
    22    23      0   0   0
    22    14      0   0   0
    22    14      1  -1   0
    22     6      0   0   0
    22     6      1   0   0
    22    30      0   0   0
    22    30      0  -1   0
    23    22      0   0   0
    23    24      0   0   0
    23    15      0   0   0
    23    15      1  -1   0
    23     7      0   0   0
    23     7      1   0   0
    23    31      0   0   0
    23    31      0  -1   0
    24    23      0   0   0
    24    17      0   0   1
    24    16      0   0   0
    24    16      1  -1   0
    24     8      0   0   0
    24     8      1   0   0
    24    32      0   0   0
    24    32      0  -1   0
    25    26      0   0   0
    25    32      0   0  -1
    25     1      1   0   0
    25     1      0   1   0
    25     9      0   0   0
    25     9      1   0   0
    25    17      0   0   0
    25    17      0   1   0
    26    25      0   0   0
    26    27      0   0   0
    26     2      1   0   0
    26     2      0   1   0
    26    10      0   0   0
    26    10      1   0   0
    26    18      0   0   0
    26    18      0   1   0
    27    26      0   0   0
    27    28      0   0   0
    27     3      1   0   0
    27     3      0   1   0
    27    11      0   0   0
    27    11      1   0   0
    27    19      0   0   0
    27    19      0   1   0
    28    27      0   0   0
    28    29      0   0   0
    28     4      1   0   0
    28     4      0   1   0
    28    12      0   0   0
    28    12      1   0   0
    28    20      0   0   0
    28    20      0   1   0
    29    28      0   0   0
    29    30      0   0   0
    29     5      1   0   0
    29     5      0   1   0
    29    13      0   0   0
    29    13      1   0   0
    29    21      0   0   0
    29    21      0   1   0
    30    29      0   0   0
    30    31      0   0   0
    30     6      1   0   0
    30     6      0   1   0
    30    14      0   0   0
    30    14      1   0   0
    30    22      0   0   0
    30    22      0   1   0
    31    30      0   0   0
    31    32      0   0   0
    31     7      1   0   0
    31     7      0   1   0
    31    15      0   0   0
    31    15      1   0   0
    31    23      0   0   0
    31    23      0   1   0
    32    31      0   0   0
    32    25      0   0   1
    32     8      1   0   0
    32     8      0   1   0
    32    16      0   0   0
    32    16      1   0   0
    32    24      0   0   0
    32    24      0   1   0
end nnkpts

begin exclude_bands
  38
  23
  24
  25
  26
  27
  28
  29
  30
  31
  32
  33
  34
  35
  36
  37
  38
  39
  40
  41
  42
  43
  44
  45
  46
  47
  48
  49
  50
  51
  52
  53
  54
  55
  56
  57
  58
  59
  60
end exclude_bands
