
     Program PWSCF v.7.1 starts on 24Jan2023 at 16:41:50 

... CONTENT REMOVED

     Writing config-only to output data dir ./out/aiida.save/
     NEW-OLD atomic charge density approx. for the potential
     extrapolated charge    8.09399, renormalised to    8.00000

     total cpu time spent up to now is       17.9 secs

     Self-consistent Calculation

     iteration #  1     ecut=    30.00 Ry     beta= 0.40
     Davidson diagonalization with overlap

---- Real-time Memory Report at c_bands before calling an iterative solver
            96 MiB given to the printing process from OS
             0 MiB allocation reported by mallinfo(arena+hblkhd)
        218088 MiB available memory on the node where the printing process lives
------------------
     ethr =  1.00E-06,  avg # of iterations =  3.1

     total cpu time spent up to now is       18.3 secs

     WARNING: integrated charge=     8.00027708, expected=     8.00000000

     total energy              =     -22.83490430 Ry
     estimated scf accuracy    <       0.00004952 Ry

     iteration #  2     ecut=    30.00 Ry     beta= 0.40
     Davidson diagonalization with overlap

---- Real-time Memory Report at c_bands before calling an iterative solver
            96 MiB given to the printing process from OS
             0 MiB allocation reported by mallinfo(arena+hblkhd)
        218087 MiB available memory on the node where the printing process lives
------------------
     ethr =  6.19E-07,  avg # of iterations =  2.5

     total cpu time spent up to now is       18.7 secs

     WARNING: integrated charge=     8.00027539, expected=     8.00000000

     total energy              =     -22.83519985 Ry
     estimated scf accuracy    <       0.00001579 Ry

     iteration #  3     ecut=    30.00 Ry     beta= 0.40
     Davidson diagonalization with overlap

---- Real-time Memory Report at c_bands before calling an iterative solver
            96 MiB given to the printing process from OS
             0 MiB allocation reported by mallinfo(arena+hblkhd)
        218087 MiB available memory on the node where the printing process lives
------------------
     ethr =  1.97E-07,  avg # of iterations =  1.0

     total cpu time spent up to now is       19.0 secs

     WARNING: integrated charge=     8.00028503, expected=     8.00000000

     total energy              =     -22.83519230 Ry
     estimated scf accuracy    <       0.00000790 Ry

     iteration #  4     ecut=    30.00 Ry     beta= 0.40
     Davidson diagonalization with overlap


... CONTENT REMOVED
