
     Program PWSCF v.7.1 starts on 11Feb2023 at 13:37:22 

     This program is part of the open-source Quantum ESPRESSO suite
     for quantum simulation of materials; please cite
         "P. Giannozzi et al., J. Phys.:Condens. Matter 21 395502 (2009);
         "P. Giannozzi et al., J. Phys.:Condens. Matter 29 465901 (2017);
         "P. Giannozzi et al., J. Chem. Phys. 152 154105 (2020);
          URL http://www.quantum-espresso.org", 
     in publications or presentations arising from this work. More details at
     http://www.quantum-espresso.org/quote

     Parallel version (MPI), running on    40 processors

     MPI processes distributed on     1 nodes
     757814 MiB available memory on the printing compute node when the environment starts
 
     Reading input from aiida.in

     Current dimensions of program PWSCF are:
     Max number of different atomic species (ntypx) = 10
     Max number of k-points (npk) =  40000
     Max angular momentum in pseudopotentials (lmaxx) =  4
     file O.pbesol-n-kjpaw_psl.0.1.UPF: wavefunction(s)  2P renormalized
 
     R & G space division:  proc/nbgrp/npool/nimage =      40
     Subspace diagonalization in iterative solution of the eigenvalue problem:
     a serial algorithm will be used

 
     Parallelization info
     --------------------
     sticks:   dense  smooth     PW     G-vecs:    dense   smooth      PW
     Min         663     331     83                85634    30275    3786
     Max         664     332     84                85638    30281    3790
     Sum       26533   13279   3323              3425419  1211179  151457
 
     Using Slab Decomposition
 


     bravais-lattice index     =            0
     lattice parameter (alat)  =      27.0195  a.u.
     unit-cell volume          =   35434.4768 (a.u.)^3
     number of atoms/cell      =          505
     number of atomic types    =            3
     number of electrons       =      3462.00
     number of Kohn-Sham states=         1731
     kinetic-energy cutoff     =      40.0000  Ry
     charge density cutoff     =     320.0000  Ry
     scf convergence threshold =      5.0E-12
     mixing beta               =       0.7000
     number of iterations used =            8  local-TF  mixing
     Exchange-correlation= PBESOL
                           (   1   4  10   8   0   0   0)
 
     Using Berry phase electric field
     In a.u.(Ry)  cartesian system of reference
        0.0000000000
        0.0000000000
        0.0000000000
     In a.u.(Ry)  crystal system of reference
        0.0000000000
        0.0000000000
        0.0000000000
     Number of iterative cycles:   1
 

     celldm(1)=  27.019460  celldm(2)=   0.000000  celldm(3)=   0.000000
     celldm(4)=   0.000000  celldm(5)=   0.000000  celldm(6)=   0.000000

     crystal axes: (cart. coord. in units of alat)
               a(1) = (   1.000000  -0.000123  -0.000047 )  
               a(2) = (  -0.000177   1.428313  -0.000522 )  
               a(3) = (  -0.000060  -0.000458   1.257688 )  

     reciprocal axes: (cart. coord. in units 2 pi/alat)
               b(1) = (  1.000000  0.000124  0.000048 )  
               b(2) = (  0.000086  0.700127  0.000255 )  
               b(3) = (  0.000038  0.000291  0.795110 )  


     PseudoPot. # 1 for Mg read from file:
     ./pseudo/mg_pbesol_v1.4.uspp.F.UPF
     MD5 check sum: 4059f37963cf5867752dbf5ab2400678
     Pseudo is Ultrasoft, Zval = 10.0
     Generated by new atomic code, or converted to UPF format
     Using radial grid of  821 points,  7 beta functions with: 
                l(1) =   0
                l(2) =   0
                l(3) =   0
                l(4) =   1
                l(5) =   1
                l(6) =   2
                l(7) =   2
     Q(r) pseudized with  8 coefficients,  rinner =    1.200   1.200   1.200
                                                       1.200   1.200

     PseudoPot. # 2 for O  read from file:
     ./pseudo/O.pbesol-n-kjpaw_psl.0.1.UPF
     MD5 check sum: 126339daddaa87477ab44acfa0b5aa00
     Pseudo is Projector augmented-wave + core cor, Zval =  6.0
     Generated using "atomic" code by A. Dal Corso  v.6.0 svn rev. 13079
     Shape of augmentation charge: BESSEL
     Using radial grid of 1095 points,  4 beta functions with: 
                l(1) =   0
                l(2) =   0
                l(3) =   1
                l(4) =   1
     Q(r) pseudized with 0 coefficients 


     PseudoPot. # 3 for Si read from file:
     ./pseudo/Si.pbesol-n-rrkjus_psl.1.0.0.UPF
     MD5 check sum: 0f72aaed442cfea083ff16d3bfdace30
     Pseudo is Ultrasoft + core correction, Zval =  4.0
     Generated using "atomic" code by A. Dal Corso  v.6.0 svn rev. 13079
     Using radial grid of 1141 points,  6 beta functions with: 
                l(1) =   0
                l(2) =   0
                l(3) =   1
                l(4) =   1
                l(5) =   2
                l(6) =   2
     Q(r) pseudized with 0 coefficients 


     atomic species   valence    mass     pseudopotential
        Mg            10.00    24.30500     Mg( 1.00)
        O              6.00    15.99940     O ( 1.00)
        Si             4.00    28.08550     Si( 1.00)

     No symmetry found


                                    s                        frac. trans.

      isym =  1     identity                                     

 cryst.   s( 1) = (     1          0          0      )
                  (     0          1          0      )
                  (     0          0          1      )

 cart.    s( 1) = (  1.0000000 -0.0000000  0.0000000 )
                  (  0.0000000  1.0000000 -0.0000000 )
                  ( -0.0000000 -0.0000000  1.0000000 )


   Cartesian axes

     site n.     atom                  positions (alat units)
         1           Mg  tau(   1) = (   0.5870687   0.4621727   0.9322491  )
         2           Mg  tau(   2) = (   0.5871050   0.4614444   0.0940340  )
         3           Mg  tau(   3) = (   0.5869546   0.4612763   0.5129438  )
         4           Mg  tau(   4) = (   0.5876446   1.1770005   0.9306448  )
         5           Mg  tau(   5) = (   0.5867123   1.1794173   0.0928591  )
         6           Mg  tau(   6) = (   0.5867976   1.1765185   0.5121465  )
         7           Mg  tau(   7) = (   0.9204017   0.4614748   0.9321813  )
         8           Mg  tau(   8) = (   0.9204461   0.4615557   0.0938299  )
         9           Mg  tau(   9) = (   0.9203291   0.4613629   0.5129385  )
        10           Mg  tau(  10) = (   0.9208240   1.1778495   0.9303180  )
        11           Mg  tau(  11) = (   0.9195880   1.1757143   0.0931209  )
        12           Mg  tau(  12) = (   0.9201272   1.1760295   0.5120884  )
        13           Mg  tau(  13) = (   0.2538793   0.4617105   0.9321089  )
        14           Mg  tau(  14) = (   0.2538550   0.4617323   0.0937115  )
        15           Mg  tau(  15) = (   0.2535930   0.4614766   0.5128765  )
        16           Mg  tau(  16) = (   0.2534833   1.1760542   0.9317603  )
        17           Mg  tau(  17) = (   0.2529619   1.1765160   0.0936393  )
        18           Mg  tau(  18) = (   0.2533781   1.1761116   0.5124277  )
        19           Mg  tau(  19) = (   0.5871630   0.4619811   1.1418656  )
        20           Mg  tau(  20) = (   0.5868918   0.4613519   0.3035615  )
        21           Mg  tau(  21) = (   0.5869748   0.4615227   0.7224817  )
        22           Mg  tau(  22) = (   0.5877144   1.1735254   1.1401067  )
        23           Mg  tau(  23) = (   0.5866661   1.1760973   0.3027559  )
        24           Mg  tau(  24) = (   0.5865948   1.1771714   0.7214667  )
        25           Mg  tau(  25) = (   0.9204786   0.4614688   1.1418428  )
        26           Mg  tau(  26) = (   0.9204229   0.4611945   0.3034384  )
        27           Mg  tau(  27) = (   0.9203048   0.4615317   0.7225234  )
        28           Mg  tau(  28) = (   0.9201961   1.1774217   1.1417878  )
        29           Mg  tau(  29) = (   0.9200218   1.1759789   0.3027618  )
        30           Mg  tau(  30) = (   0.9205598   1.1763131   0.7211118  )
        31           Mg  tau(  31) = (   0.2539517   0.4615898   1.1417510  )
        32           Mg  tau(  32) = (   0.2537057   0.4615589   0.3033301  )
        33           Mg  tau(  33) = (   0.2536294   0.4615309   0.7224448  )
        34           Mg  tau(  34) = (   0.2532023   1.1762269   1.1415105  )
        35           Mg  tau(  35) = (   0.2532162   1.1763507   0.3030481  )
        36           Mg  tau(  36) = (   0.2536104   1.1761836   0.7220153  )
        37           Mg  tau(  37) = (   0.7553849   0.8187688   0.9303160  )
        38           Mg  tau(  38) = (   0.7532299   0.8194804   0.0937453  )
        39           Mg  tau(  39) = (   0.7537397   0.8181600   0.5124461  )
        40           Mg  tau(  40) = (   0.7537205   0.1048084   0.9321636  )
        41           Mg  tau(  41) = (   0.7536725   0.1048228   0.0937300  )
        42           Mg  tau(  42) = (   0.7536883   0.1048008   0.5129309  )
        43           Mg  tau(  43) = (   0.0867238   0.8188631   0.9319964  )
        44           Mg  tau(  44) = (   0.0872756   0.8187496   0.0937674  )
        45           Mg  tau(  45) = (   0.0868099   0.8187097   0.5126170  )
        46           Mg  tau(  46) = (   0.0871378   0.1048411   0.9321825  )
        47           Mg  tau(  47) = (   0.0870166   0.1049488   0.0937575  )
        48           Mg  tau(  48) = (   0.0870023   0.1048080   0.5129616  )
        49           Mg  tau(  49) = (   0.4179101   0.8181895   0.9298652  )
        50           Mg  tau(  50) = (   0.4200848   0.8178433   0.0942272  )
        51           Mg  tau(  51) = (   0.4198144   0.8183398   0.5123881  )
        52           Mg  tau(  52) = (   0.4204178   0.1049153   0.9322209  )
        53           Mg  tau(  53) = (   0.4203992   0.1050101   0.0937982  )
        54           Mg  tau(  54) = (   0.4203229   0.1048692   0.5129992  )
        55           Mg  tau(  55) = (   0.7571443   0.8138233   1.1434986  )
        56           Mg  tau(  56) = (   0.7543343   0.8179177   0.3039948  )
        57           Mg  tau(  57) = (   0.7533438   0.8187891   0.7219213  )
        58           Mg  tau(  58) = (   0.7536804   0.1046489   1.1417903  )
        59           Mg  tau(  59) = (   0.7536654   0.1048058   0.3033739  )
        60           Mg  tau(  60) = (   0.7537343   0.1051480   0.7225161  )
        61           Mg  tau(  61) = (   0.0866860   0.8184414   1.1418492  )
        62           Mg  tau(  62) = (   0.0868104   0.8187881   0.3031437  )
        63           Mg  tau(  63) = (   0.0867637   0.8187245   0.7220228  )
        64           Mg  tau(  64) = (   0.0870575   0.1046897   1.1418317  )
        65           Mg  tau(  65) = (   0.0869945   0.1048581   0.3033856  )
        66           Mg  tau(  66) = (   0.0871136   0.1049341   0.7225521  )
        67           Mg  tau(  67) = (   0.4208266   0.8187455   1.1414427  )
        68           Mg  tau(  68) = (   0.4197797   0.8182824   0.3036442  )
        69           Mg  tau(  69) = (   0.4196120   0.8174923   0.7210404  )
        70           Mg  tau(  70) = (   0.4203856   0.1048547   1.1418472  )
        71           Mg  tau(  71) = (   0.4203209   0.1049270   0.3034269  )
        72           Mg  tau(  72) = (   0.4203990   0.1048493   0.7225983  )
        73           Mg  tau(  73) = (   0.7654129   1.0234807   1.0327317  )
        74           Mg  tau(  74) = (   0.7559315   1.0166203   0.1982234  )
        75           Mg  tau(  75) = (   0.7560218   1.0164872   0.6161782  )
        76           Mg  tau(  76) = (   0.7564859   0.3024900   1.0369595  )
        77           Mg  tau(  77) = (   0.7566790   0.3021530   0.1986161  )
        78           Mg  tau(  78) = (   0.7565709   0.3022850   0.6177576  )
        79           Mg  tau(  79) = (   0.0893523   1.0168712   1.0367012  )
        80           Mg  tau(  80) = (   0.0894156   1.0166558   0.1980139  )
        81           Mg  tau(  81) = (   0.0895750   1.0166625   0.6171162  )
        82           Mg  tau(  82) = (   0.0899876   0.3022852   1.0369622  )
        83           Mg  tau(  83) = (   0.0899687   0.3023311   0.1984799  )
        84           Mg  tau(  84) = (   0.0898808   0.3023708   0.6177363  )
        85           Mg  tau(  85) = (   0.4224685   1.0170148   1.0370152  )
        86           Mg  tau(  86) = (   0.4221054   1.0168582   0.1994918  )
        87           Mg  tau(  87) = (   0.4224621   1.0165002   0.6169489  )
        88           Mg  tau(  88) = (   0.4233034   0.3024645   1.0370040  )
        89           Mg  tau(  89) = (   0.4232244   0.3024600   0.1984749  )
        90           Mg  tau(  90) = (   0.4231803   0.3023285   0.6178198  )
        91           Mg  tau(  91) = (   0.7506509   0.6197355   1.2484627  )
        92           Mg  tau(  92) = (   0.7507598   0.6205387   0.4082739  )
        93           Mg  tau(  93) = (   0.7506245   0.6208933   0.8267906  )
        94           Mg  tau(  94) = (   0.7505392   1.3349867   1.2461180  )
        95           Mg  tau(  95) = (   0.7507273   1.3354577   0.4075739  )
        96           Mg  tau(  96) = (   0.7507614   1.3363274   0.8259513  )
        97           Mg  tau(  97) = (   0.0848397   0.6204274   1.2467895  )
        98           Mg  tau(  98) = (   0.0841712   0.6208295   0.4080856  )
        99           Mg  tau(  99) = (   0.0840399   0.6207789   0.8272131  )
       100           Mg  tau( 100) = (   0.0839027   1.3352818   1.2463161  )
       101           Mg  tau( 101) = (   0.0839364   1.3355144   0.4074588  )
       102           Mg  tau( 102) = (   0.0843691   1.3356456   0.8265452  )
       103           Mg  tau( 103) = (   0.4177039   0.6210773   1.2468321  )
       104           Mg  tau( 104) = (   0.4174466   0.6207111   0.4080652  )
       105           Mg  tau( 105) = (   0.4173293   0.6205919   0.8268341  )
       106           Mg  tau( 106) = (   0.4171077   1.3356497   1.2460717  )
       107           Mg  tau( 107) = (   0.4172492   1.3356256   0.4076734  )
       108           Mg  tau( 108) = (   0.4173155   1.3356695   0.8269013  )
       109           Mg  tau( 109) = (   0.5848987   0.9802524   0.0033655  )
       110           Mg  tau( 110) = (   0.5890519   0.9781176   0.4089833  )
       111           Mg  tau( 111) = (   0.5874429   0.9786851   0.8195966  )
       112           Mg  tau( 112) = (   0.5898861   0.2639190   1.2466413  )
       113           Mg  tau( 113) = (   0.5898791   0.2639946   0.4081746  )
       114           Mg  tau( 114) = (   0.5899087   0.2641583   0.8274615  )
       115           Mg  tau( 115) = (   0.9221747   0.9774725   1.2466569  )
       116           Mg  tau( 116) = (   0.9228116   0.9780102   0.4076344  )
       117           Mg  tau( 117) = (   0.9235314   0.9785044   0.8260710  )
       118           Mg  tau( 118) = (   0.9232754   0.2636877   1.2466360  )
       119           Mg  tau( 119) = (   0.9232190   0.2638915   0.4081404  )
       120           Mg  tau( 120) = (   0.9232730   0.2641137   0.8273555  )
       121           Mg  tau( 121) = (   0.2563416   0.9780663   1.2464965  )
       122           Mg  tau( 122) = (   0.2559905   0.9782810   0.4077905  )
       123           Mg  tau( 123) = (   0.2560248   0.9781761   0.8267175  )
       124           Mg  tau( 124) = (   0.2565986   0.2638581   1.2466650  )
       125           Mg  tau( 125) = (   0.2565074   0.2640181   0.4081785  )
       126           Mg  tau( 126) = (   0.2565926   0.2640975   0.8274184  )
       127           Mg  tau( 127) = (   0.9181982   0.6587445   1.0369439  )
       128           Mg  tau( 128) = (   0.9177755   0.6587582   0.1991899  )
       129           Mg  tau( 129) = (   0.9175411   0.6590239   0.6175308  )
       130           Mg  tau( 130) = (   0.9176695   1.3742289   1.0362986  )
       131           Mg  tau( 131) = (   0.9172557   1.3737285   0.1978738  )
       132           Mg  tau( 132) = (   0.9173873   1.3738541   0.6170243  )
       133           Mg  tau( 133) = (   0.2507836   0.6593696   1.0368260  )
       134           Mg  tau( 134) = (   0.2508125   0.6592571   0.1984015  )
       135           Mg  tau( 135) = (   0.2504903   0.6590331   0.6173099  )
       136           Mg  tau( 136) = (   0.2509105   1.3737262   1.0364842  )
       137           Mg  tau( 137) = (   0.2504889   1.3740076   0.1980848  )
       138           Mg  tau( 138) = (   0.2506858   1.3738698   0.6171975  )
       139           Mg  tau( 139) = (   0.5843870   0.6603678   1.0376251  )
       140           Mg  tau( 140) = (   0.5842240   0.6588529   0.1984381  )
       141           Mg  tau( 141) = (   0.5840980   0.6586584   0.6172664  )
       142           Mg  tau( 142) = (   0.5837395   1.3740529   1.0366482  )
       143           Mg  tau( 143) = (   0.5839936   1.3742979   0.1983291  )
       144           Mg  tau( 144) = (   0.5840395   1.3740947   0.6171278  )
       145           Si  tau( 145) = (   0.6080678   0.8866265   1.0210694  )
       146           Si  tau( 146) = (   0.6111077   0.8845996   0.2034457  )
       147           Si  tau( 147) = (   0.6111209   0.8850215   0.6158763  )
       148           Si  tau( 148) = (   0.6114735   0.1718706   1.0370229  )
       149           Si  tau( 149) = (   0.6114503   0.1718455   0.1986047  )
       150           Si  tau( 150) = (   0.6114390   0.1717887   0.6177689  )
       151           Si  tau( 151) = (   0.9442820   0.8858210   1.0368197  )
       152           Si  tau( 152) = (   0.9446671   0.8856130   0.1983625  )
       153           Si  tau( 153) = (   0.9445329   0.8856393   0.6171599  )
       154           Si  tau( 154) = (   0.9448329   0.1716819   1.0369581  )
       155           Si  tau( 155) = (   0.9448065   0.1716079   0.1985537  )
       156           Si  tau( 156) = (   0.9448196   0.1716583   0.6177222  )
       157           Si  tau( 157) = (   0.2776383   0.8856280   1.0366439  )
       158           Si  tau( 158) = (   0.2779193   0.8857640   0.1984721  )
       159           Si  tau( 159) = (   0.2776774   0.8857100   0.6171767  )
       160           Si  tau( 160) = (   0.2781762   0.1716967   1.0370221  )
       161           Si  tau( 161) = (   0.2781242   0.1717873   0.1985893  )
       162           Si  tau( 162) = (   0.2781184   0.1716966   0.6178138  )
       163           Si  tau( 163) = (   0.8976929   0.7489656   1.2485602  )
       164           Si  tau( 164) = (   0.8961818   0.7511836   0.4083477  )
       165           Si  tau( 165) = (   0.8962180   0.7515366   0.8265938  )
       166           Si  tau( 166) = (   0.8959029   0.0376499   1.2465894  )
       167           Si  tau( 167) = (   0.8959218   0.0378310   0.4080822  )
       168           Si  tau( 168) = (   0.8961172   0.0381861   0.8271800  )
       169           Si  tau( 169) = (   0.2293450   0.7515507   1.2462744  )
       170           Si  tau( 170) = (   0.2289257   0.7516194   0.4078882  )
       171           Si  tau( 171) = (   0.2285576   0.7514581   0.8267876  )
       172           Si  tau( 172) = (   0.2292166   0.0377126   1.2466220  )
       173           Si  tau( 173) = (   0.2292242   0.0379313   0.4082094  )
       174           Si  tau( 174) = (   0.2293766   0.0379658   0.8273813  )
       175           Si  tau( 175) = (   0.5631274   0.7517044   1.2473513  )
       176           Si  tau( 176) = (   0.5624559   0.7512767   0.4082184  )
       177           Si  tau( 177) = (   0.5623121   0.7517433   0.8260206  )
       178           Si  tau( 178) = (   0.5625468   0.0378180   1.2465955  )
       179           Si  tau( 179) = (   0.5625766   0.0380042   0.4082433  )
       180           Si  tau( 180) = (   0.5626198   0.0380676   0.8274153  )
       181           Si  tau( 181) = (   0.7770777   1.1085853   1.2453638  )
       182           Si  tau( 182) = (   0.7776788   1.1090635   0.4073900  )
       183           Si  tau( 183) = (   0.7780286   1.1100531   0.8244705  )
       184           Si  tau( 184) = (   0.7781781   0.3942196   1.2465675  )
       185           Si  tau( 185) = (   0.7780939   0.3944549   0.4082618  )
       186           Si  tau( 186) = (   0.7781010   0.3948245   0.8274321  )
       187           Si  tau( 187) = (   0.1110201   1.1088800   1.2462661  )
       188           Si  tau( 188) = (   0.1110840   1.1090839   0.4076286  )
       189           Si  tau( 189) = (   0.1114016   1.1093118   0.8266412  )
       190           Si  tau( 190) = (   0.1115685   0.3944867   1.2465119  )
       191           Si  tau( 191) = (   0.1114398   0.3946525   0.4081311  )
       192           Si  tau( 192) = (   0.1114971   0.3947683   0.8273712  )
       193           Si  tau( 193) = (   0.4435396   1.1104537   1.2466474  )
       194           Si  tau( 194) = (   0.4444249   1.1092342   0.4078567  )
       195           Si  tau( 195) = (   0.4445207   1.1094544   0.8271284  )
       196           Si  tau( 196) = (   0.4448967   0.3947188   1.2464903  )
       197           Si  tau( 197) = (   0.4446638   0.3945431   0.4082082  )
       198           Si  tau( 198) = (   0.4448503   0.3948169   0.8274690  )
       199           Si  tau( 199) = (   0.7294765   0.5291018   1.0370624  )
       200           Si  tau( 200) = (   0.7292903   0.5277084   0.1992473  )
       201           Si  tau( 201) = (   0.7292453   0.5281517   0.6176557  )
       202           Si  tau( 202) = (   0.7295908   1.2458512   1.0351624  )
       203           Si  tau( 203) = (   0.7290190   1.2434069   0.1984042  )
       204           Si  tau( 204) = (   0.7291096   1.2432183   0.6167304  )
       205           Si  tau( 205) = (   0.0628475   0.5282982   1.0369226  )
       206           Si  tau( 206) = (   0.0627468   0.5282732   0.1986344  )
       207           Si  tau( 207) = (   0.0625191   0.5284533   0.6177102  )
       208           Si  tau( 208) = (   0.0625276   1.2431919   1.0363590  )
       209           Si  tau( 209) = (   0.0620807   1.2430787   0.1980154  )
       210           Si  tau( 210) = (   0.0625596   1.2432100   0.6168973  )
       211           Si  tau( 211) = (   0.3961518   0.5288897   1.0369677  )
       212           Si  tau( 212) = (   0.3959315   0.5285307   0.1986003  )
       213           Si  tau( 213) = (   0.3957947   0.5283589   0.6175684  )
       214           Si  tau( 214) = (   0.3959699   1.2427673   1.0365258  )
       215           Si  tau( 215) = (   0.3954402   1.2434268   0.1983539  )
       216           Si  tau( 216) = (   0.3956456   1.2431411   0.6171447  )
       217           O   tau( 217) = (   0.8300806   0.8857722   1.0365799  )
       218           O   tau( 218) = (   0.8308919   0.8840436   0.1989240  )
       219           O   tau( 219) = (   0.8307651   0.8840417   0.6171717  )
       220           O   tau( 220) = (   0.8310596   0.1701592   1.0369451  )
       221           O   tau( 221) = (   0.8310280   0.1701710   0.1985679  )
       222           O   tau( 222) = (   0.8310413   0.1702495   0.6177137  )
       223           O   tau( 223) = (   0.1637950   0.8841687   1.0368925  )
       224           O   tau( 224) = (   0.1641862   0.8843316   0.1984093  )
       225           O   tau( 225) = (   0.1639422   0.8843132   0.6173013  )
       226           O   tau( 226) = (   0.1644017   0.1701952   1.0369984  )
       227           O   tau( 227) = (   0.1643457   0.1702863   0.1985678  )
       228           O   tau( 228) = (   0.1643444   0.1702343   0.6177988  )
       229           O   tau( 229) = (   0.4957038   0.8835624   1.0323368  )
       230           O   tau( 230) = (   0.4972910   0.8839392   0.2001263  )
       231           O   tau( 231) = (   0.4973391   0.8839553   0.6167156  )
       232           O   tau( 232) = (   0.4976838   0.1703991   1.0370065  )
       233           O   tau( 233) = (   0.4976615   0.1703650   0.1986115  )
       234           O   tau( 234) = (   0.4976594   0.1702529   0.6178274  )
       235           O   tau( 235) = (   0.6767862   0.7481452   1.2496911  )
       236           O   tau( 236) = (   0.6762480   0.7521196   0.4085365  )
       237           O   tau( 237) = (   0.6761859   0.7520263   0.8262311  )
       238           O   tau( 238) = (   0.6763143   0.0392546   1.2465576  )
       239           O   tau( 239) = (   0.6763442   0.0394677   0.4082051  )
       240           O   tau( 240) = (   0.6763905   0.0399231   0.8271025  )
       241           O   tau( 241) = (   0.0114155   0.7508865   1.2471045  )
       242           O   tau( 242) = (   0.0099045   0.7528589   0.4081070  )
       243           O   tau( 243) = (   0.0099042   0.7530376   0.8270224  )
       244           O   tau( 244) = (   0.0097094   0.0392177   1.2466252  )
       245           O   tau( 245) = (   0.0096993   0.0394062   0.4081664  )
       246           O   tau( 246) = (   0.0098962   0.0395890   0.8272228  )
       247           O   tau( 247) = (   0.3430688   0.7529796   1.2461723  )
       248           O   tau( 248) = (   0.3426807   0.7529076   0.4079918  )
       249           O   tau( 249) = (   0.3423420   0.7523459   0.8262976  )
       250           O   tau( 250) = (   0.3429956   0.0392499   1.2466509  )
       251           O   tau( 251) = (   0.3429974   0.0394595   0.4082336  )
       252           O   tau( 252) = (   0.3431393   0.0394083   0.8273676  )
       253           O   tau( 253) = (   0.6633543   1.1134590   1.2468924  )
       254           O   tau( 254) = (   0.6639189   1.1108179   0.4077101  )
       255           O   tau( 255) = (   0.6643494   1.1115102   0.8252403  )
       256           O   tau( 256) = (   0.6643906   0.3960323   1.2465142  )
       257           O   tau( 257) = (   0.6643134   0.3959030   0.4083320  )
       258           O   tau( 258) = (   0.6643235   0.3965099   0.8275310  )
       259           O   tau( 259) = (   0.9973204   1.1103456   1.2462334  )
       260           O   tau( 260) = (   0.9973151   1.1103971   0.4075559  )
       261           O   tau( 261) = (   0.9976455   1.1109384   0.8261200  )
       262           O   tau( 262) = (   0.9977859   0.3958476   1.2465347  )
       263           O   tau( 263) = (   0.9976766   0.3959744   0.4081957  )
       264           O   tau( 264) = (   0.9977081   0.3961877   0.8273266  )
       265           O   tau( 265) = (   0.3298386   1.1111975   1.2468667  )
       266           O   tau( 266) = (   0.3306555   1.1105972   0.4078248  )
       267           O   tau( 267) = (   0.3307863   1.1106174   0.8269081  )
       268           O   tau( 268) = (   0.3311160   0.3960600   1.2465008  )
       269           O   tau( 269) = (   0.3308957   0.3960814   0.4081623  )
       270           O   tau( 270) = (   0.3310685   0.3963255   0.8273663  )
       271           O   tau( 271) = (   0.8432556   0.5271995   1.0368796  )
       272           O   tau( 272) = (   0.8430650   0.5262214   0.1989885  )
       273           O   tau( 273) = (   0.8430129   0.5267737   0.6177136  )
       274           O   tau( 274) = (   0.8434731   1.2432652   1.0354167  )
       275           O   tau( 275) = (   0.8427762   1.2415784   0.1981841  )
       276           O   tau( 276) = (   0.8428900   1.2417863   0.6167184  )
       277           O   tau( 277) = (   0.1766267   0.5269583   1.0368038  )
       278           O   tau( 278) = (   0.1765177   0.5269564   0.1986027  )
       279           O   tau( 279) = (   0.1762882   0.5269735   0.6176657  )
       280           O   tau( 280) = (   0.1762954   1.2415208   1.0364756  )
       281           O   tau( 281) = (   0.1758809   1.2417917   0.1982113  )
       282           O   tau( 282) = (   0.1763151   1.2416648   0.6171662  )
       283           O   tau( 283) = (   0.5099657   0.5277721   1.0369921  )
       284           O   tau( 284) = (   0.5096781   0.5268263   0.1987531  )
       285           O   tau( 285) = (   0.5095613   0.5267060   0.6176248  )
       286           O   tau( 286) = (   0.5097939   1.2408344   1.0362634  )
       287           O   tau( 287) = (   0.5092343   1.2423890   0.1984032  )
       288           O   tau( 288) = (   0.5094264   1.2418601   0.6169999  )
       289           O   tau( 289) = (   0.6612816   0.7861939   1.0398432  )
       290           O   tau( 290) = (   0.6610345   0.7794443   0.2000563  )
       291           O   tau( 291) = (   0.6607587   0.7796468   0.6171136  )
       292           O   tau( 292) = (   0.6610672   0.0664256   1.0369577  )
       293           O   tau( 293) = (   0.6611165   0.0663868   0.1986067  )
       294           O   tau( 294) = (   0.6611529   0.0663382   0.6177841  )
       295           O   tau( 295) = (   0.9936584   0.7802536   1.0367763  )
       296           O   tau( 296) = (   0.9943500   0.7800679   0.1982840  )
       297           O   tau( 297) = (   0.9941687   0.7801222   0.6174047  )
       298           O   tau( 298) = (   0.9946409   0.0662500   1.0368818  )
       299           O   tau( 299) = (   0.9944779   0.0661323   0.1985140  )
       300           O   tau( 300) = (   0.9944932   0.0661785   0.6177367  )
       301           O   tau( 301) = (   0.3273315   0.7801679   1.0364359  )
       302           O   tau( 302) = (   0.3274128   0.7801989   0.1986882  )
       303           O   tau( 303) = (   0.3270880   0.7800432   0.6169697  )
       304           O   tau( 304) = (   0.3278726   0.0662333   1.0369819  )
       305           O   tau( 305) = (   0.3277817   0.0663141   0.1985658  )
       306           O   tau( 306) = (   0.3278068   0.0662232   0.6178392  )
       307           O   tau( 307) = (   0.8501018   0.8543637   1.2493386  )
       308           O   tau( 308) = (   0.8466783   0.8566888   0.4083294  )
       309           O   tau( 309) = (   0.8469868   0.8572032   0.8260196  )
       310           O   tau( 310) = (   0.8462395   0.1431396   1.2466312  )
       311           O   tau( 311) = (   0.8462644   0.1433040   0.4081546  )
       312           O   tau( 312) = (   0.8463472   0.1436043   0.8272429  )
       313           O   tau( 313) = (   0.1796134   0.8570707   1.2464291  )
       314           O   tau( 314) = (   0.1794312   0.8571900   0.4079541  )
       315           O   tau( 315) = (   0.1792625   0.8571141   0.8268536  )
       316           O   tau( 316) = (   0.1795700   0.1431951   1.2466610  )
       317           O   tau( 317) = (   0.1795460   0.1434002   0.4082110  )
       318           O   tau( 318) = (   0.1796945   0.1434259   0.8273795  )
       319           O   tau( 319) = (   0.5119277   0.8567925   1.2480216  )
       320           O   tau( 320) = (   0.5124308   0.8566841   0.4083989  )
       321           O   tau( 321) = (   0.5110474   0.8565778   0.8243369  )
       322           O   tau( 322) = (   0.5128776   0.1433248   1.2467036  )
       323           O   tau( 323) = (   0.5128640   0.1434540   0.4082726  )
       324           O   tau( 324) = (   0.5128849   0.1435313   0.8273819  )
       325           O   tau( 325) = (   0.8278937   0.4996115   1.2466922  )
       326           O   tau( 326) = (   0.8278167   0.4999013   0.4082681  )
       327           O   tau( 327) = (   0.8277781   0.5003182   0.8274581  )
       328           O   tau( 328) = (   0.8272106   1.2144468   1.2467593  )
       329           O   tau( 329) = (   0.8275015   1.2145101   0.4075582  )
       330           O   tau( 330) = (   0.8277273   1.2154192   0.8255772  )
       331           O   tau( 331) = (   0.1614221   0.4998904   1.2465562  )
       332           O   tau( 332) = (   0.1610909   0.5001416   0.4081290  )
       333           O   tau( 333) = (   0.1611744   0.5002545   0.8273171  )
       334           O   tau( 334) = (   0.1605365   1.2144878   1.2462672  )
       335           O   tau( 335) = (   0.1607070   1.2146128   0.4077827  )
       336           O   tau( 336) = (   0.1611646   1.2147275   0.8267400  )
       337           O   tau( 337) = (   0.4945955   0.5001843   1.2466708  )
       338           O   tau( 338) = (   0.4943333   0.5000012   0.4082636  )
       339           O   tau( 339) = (   0.4945053   0.5003392   0.8273952  )
       340           O   tau( 340) = (   0.4939004   1.2153408   1.2456996  )
       341           O   tau( 341) = (   0.4940012   1.2147166   0.4076879  )
       342           O   tau( 342) = (   0.4942553   1.2148650   0.8265679  )
       343           O   tau( 343) = (   0.6816897   1.1402150   1.0330990  )
       344           O   tau( 344) = (   0.6791440   1.1380605   0.1979089  )
       345           O   tau( 345) = (   0.6793013   1.1377712   0.6168095  )
       346           O   tau( 346) = (   0.6797378   0.4236815   1.0368779  )
       347           O   tau( 347) = (   0.6794633   0.4223034   0.1990683  )
       348           O   tau( 348) = (   0.6795066   0.4227280   0.6177576  )
       349           O   tau( 349) = (   0.0124075   1.1379351   1.0360974  )
       350           O   tau( 350) = (   0.0124901   1.1375624   0.1980230  )
       351           O   tau( 351) = (   0.0129522   1.1376792   0.6168208  )
       352           O   tau( 352) = (   0.0130153   0.4229209   1.0368479  )
       353           O   tau( 353) = (   0.0130390   0.4228275   0.1987019  )
       354           O   tau( 354) = (   0.0128797   0.4229883   0.6177960  )
       355           O   tau( 355) = (   0.3458679   1.1374366   1.0366286  )
       356           O   tau( 356) = (   0.3456989   1.1379524   0.1986081  )
       357           O   tau( 357) = (   0.3460573   1.1375905   0.6171974  )
       358           O   tau( 358) = (   0.3465869   0.4233452   1.0368466  )
       359           O   tau( 359) = (   0.3462503   0.4230433   0.1985345  )
       360           O   tau( 360) = (   0.3461127   0.4228973   0.6176678  )
       361           O   tau( 361) = (   0.6838577   0.9247412   1.1834910  )
       362           O   tau( 362) = (   0.6616345   0.9331341   0.2948128  )
       363           O   tau( 363) = (   0.6615601   0.9356556   0.7063171  )
       364           O   tau( 364) = (   0.6616339   0.2214899   1.1283613  )
       365           O   tau( 365) = (   0.6616059   0.2213330   0.2900020  )
       366           O   tau( 366) = (   0.6615745   0.2215378   0.7090751  )
       367           O   tau( 367) = (   0.9944411   0.9352896   1.1281429  )
       368           O   tau( 368) = (   0.9947953   0.9351260   0.2898835  )
       369           O   tau( 369) = (   0.9948721   0.9354446   0.7083832  )
       370           O   tau( 370) = (   0.9950076   0.2212056   1.1283341  )
       371           O   tau( 371) = (   0.9949587   0.2212140   0.2899097  )
       372           O   tau( 372) = (   0.9949594   0.2213483   0.7090472  )
       373           O   tau( 373) = (   0.3282491   0.9352642   1.1277885  )
       374           O   tau( 374) = (   0.3278355   0.9354734   0.2899279  )
       375           O   tau( 375) = (   0.3279745   0.9351512   0.7085211  )
       376           O   tau( 376) = (   0.3283050   0.2213452   1.1283690  )
       377           O   tau( 377) = (   0.3282344   0.2213958   0.2899537  )
       378           O   tau( 378) = (   0.3282653   0.2213804   0.7091431  )
       379           O   tau( 379) = (   0.8464955   0.6995697   0.0812699  )
       380           O   tau( 380) = (   0.8458669   0.7016037   0.4996165  )
       381           O   tau( 381) = (   0.8459669   0.7026389   0.9185066  )
       382           O   tau( 382) = (   0.8456484   1.4167420   0.0796811  )
       383           O   tau( 383) = (   0.8456027   1.4164964   0.4989061  )
       384           O   tau( 384) = (   0.8459159   1.4168522   0.9179717  )
       385           O   tau( 385) = (   0.1797245   0.7021742   0.0800763  )
       386           O   tau( 386) = (   0.1788318   0.7019410   0.4992353  )
       387           O   tau( 387) = (   0.1787724   0.7019856   0.9183643  )
       388           O   tau( 388) = (   0.1789306   1.4167421   0.0797102  )
       389           O   tau( 389) = (   0.1789208   1.4165604   0.4990168  )
       390           O   tau( 390) = (   0.1791470   1.4165532   0.9181807  )
       391           O   tau( 391) = (   0.5118844   0.7018545   0.0804152  )
       392           O   tau( 392) = (   0.5120503   0.7015898   0.4994810  )
       393           O   tau( 393) = (   0.5132957   0.7035431   0.9188670  )
       394           O   tau( 394) = (   0.5122926   1.4168475   0.0797048  )
       395           O   tau( 395) = (   0.5122167   1.4166215   0.4990297  )
       396           O   tau( 396) = (   0.5121598   1.4167538   0.9181948  )
       397           O   tau( 397) = (   0.8294930   1.0622340   1.1532722  )
       398           O   tau( 398) = (   0.8278146   1.0594516   0.3160264  )
       399           O   tau( 399) = (   0.8282726   1.0600476   0.7336045  )
       400           O   tau( 400) = (   0.8283182   0.3448147   1.1551027  )
       401           O   tau( 401) = (   0.8283006   0.3447168   0.3170060  )
       402           O   tau( 402) = (   0.8282029   0.3451320   0.7361022  )
       403           O   tau( 403) = (   0.1612370   1.0593517   1.1548235  )
       404           O   tau( 404) = (   0.1612750   1.0594982   0.3163038  )
       405           O   tau( 405) = (   0.1615474   1.0594517   0.7353936  )
       406           O   tau( 406) = (   0.1617259   0.3449559   1.1551202  )
       407           O   tau( 407) = (   0.1616026   0.3449946   0.3168248  )
       408           O   tau( 408) = (   0.1616060   0.3450882   0.7360284  )
       409           O   tau( 409) = (   0.4929686   1.0588621   1.1566504  )
       410           O   tau( 410) = (   0.4946261   1.0594073   0.3166784  )
       411           O   tau( 411) = (   0.4942685   1.0598808   0.7351585  )
       412           O   tau( 412) = (   0.4950700   0.3452364   1.1550871  )
       413           O   tau( 413) = (   0.4948245   0.3449058   0.3168882  )
       414           O   tau( 414) = (   0.4949252   0.3451267   0.7361287  )
       415           O   tau( 415) = (   0.6793315   0.5795091   0.9460488  )
       416           O   tau( 416) = (   0.6789380   0.5771454   0.1080518  )
       417           O   tau( 417) = (   0.6790203   0.5777836   0.5263856  )
       418           O   tau( 418) = (   0.6789646   1.2955839   0.9441350  )
       419           O   tau( 419) = (   0.6789551   1.2941099   0.1075247  )
       420           O   tau( 420) = (   0.6788343   1.2929478   0.5255478  )
       421           O   tau( 421) = (   0.0125722   0.5781995   0.9456965  )
       422           O   tau( 422) = (   0.0128040   0.5778509   0.1072687  )
       423           O   tau( 423) = (   0.0123927   0.5781291   0.5263955  )
       424           O   tau( 424) = (   0.0128857   1.2931776   0.9448623  )
       425           O   tau( 425) = (   0.0120289   1.2928684   0.1067405  )
       426           O   tau( 426) = (   0.0122990   1.2928787   0.5256814  )
       427           O   tau( 427) = (   0.3460575   0.5785597   0.9455586  )
       428           O   tau( 428) = (   0.3458570   0.5782607   0.1072701  )
       429           O   tau( 429) = (   0.3455968   0.5780592   0.5262919  )
       430           O   tau( 430) = (   0.3458704   1.2924724   0.9451297  )
       431           O   tau( 431) = (   0.3454073   1.2930068   0.1069138  )
       432           O   tau( 432) = (   0.3454676   1.2927859   0.5258638  )
       433           O   tau( 433) = (   0.8473691   0.7003197   1.1562319  )
       434           O   tau( 434) = (   0.8459805   0.7014352   0.3171363  )
       435           O   tau( 435) = (   0.8457639   0.7016209   0.7356899  )
       436           O   tau( 436) = (   0.8457238   1.4164420   1.1546216  )
       437           O   tau( 437) = (   0.8455746   1.4165083   0.3162370  )
       438           O   tau( 438) = (   0.8457196   1.4168294   0.7353194  )
       439           O   tau( 439) = (   0.1792629   0.7019700   1.1548743  )
       440           O   tau( 440) = (   0.1788710   0.7020195   0.3165281  )
       441           O   tau( 441) = (   0.1785367   0.7018973   0.7354338  )
       442           O   tau( 442) = (   0.1790229   1.4163904   1.1547098  )
       443           O   tau( 443) = (   0.1788528   1.4166018   0.3163626  )
       444           O   tau( 444) = (   0.1790441   1.4165794   0.7355257  )
       445           O   tau( 445) = (   0.5130781   0.7030680   1.1551021  )
       446           O   tau( 446) = (   0.5122507   0.7017038   0.3168472  )
       447           O   tau( 447) = (   0.5119818   0.7007124   0.7355496  )
       448           O   tau( 448) = (   0.5120630   1.4167188   1.1546854  )
       449           O   tau( 449) = (   0.5121795   1.4167120   0.3164150  )
       450           O   tau( 450) = (   0.5123505   1.4165817   0.7355759  )
       451           O   tau( 451) = (   0.6594521   0.9286520   0.9286600  )
       452           O   tau( 452) = (   0.6610441   0.9370507   0.1143928  )
       453           O   tau( 453) = (   0.6615722   0.9345980   0.5248884  )
       454           O   tau( 454) = (   0.6616299   0.2216026   0.9457076  )
       455           O   tau( 455) = (   0.6615891   0.2214906   0.1072686  )
       456           O   tau( 456) = (   0.6615919   0.2213635   0.5264225  )
       457           O   tau( 457) = (   0.9942986   0.9354582   0.9453311  )
       458           O   tau( 458) = (   0.9951513   0.9357240   0.1074329  )
       459           O   tau( 459) = (   0.9947306   0.9353178   0.5258931  )
       460           O   tau( 460) = (   0.9949906   0.2213493   0.9456200  )
       461           O   tau( 461) = (   0.9949749   0.2213351   0.1072505  )
       462           O   tau( 462) = (   0.9949861   0.2212620   0.5263847  )
       463           O   tau( 463) = (   0.3270349   0.9353930   0.9449515  )
       464           O   tau( 464) = (   0.3283167   0.9354967   0.1072884  )
       465           O   tau( 465) = (   0.3278960   0.9354275   0.5259332  )
       466           O   tau( 466) = (   0.3282939   0.2214414   0.9457021  )
       467           O   tau( 467) = (   0.3282780   0.2215206   0.1072877  )
       468           O   tau( 468) = (   0.3282326   0.2213392   0.5264738  )
       469           O   tau( 469) = (   0.6794532   0.5790360   1.1282745  )
       470           O   tau( 470) = (   0.6791227   0.5774835   0.2904524  )
       471           O   tau( 471) = (   0.6790506   0.5778484   0.7089088  )
       472           O   tau( 472) = (   0.6790692   1.2936472   1.1271200  )
       473           O   tau( 473) = (   0.6788398   1.2928122   0.2898621  )
       474           O   tau( 474) = (   0.6789699   1.2931159   0.7079910  )
       475           O   tau( 475) = (   0.0128888   0.5778854   1.1283028  )
       476           O   tau( 476) = (   0.0125300   0.5779909   0.2899379  )
       477           O   tau( 477) = (   0.0123517   0.5781566   0.7090295  )
       478           O   tau( 478) = (   0.0125288   1.2930542   1.1276634  )
       479           O   tau( 479) = (   0.0120725   1.2927108   0.2894457  )
       480           O   tau( 480) = (   0.0124478   1.2928449   0.7082976  )
       481           O   tau( 481) = (   0.3459992   0.5783989   1.1283234  )
       482           O   tau( 482) = (   0.3457056   0.5781618   0.2899110  )
       483           O   tau( 483) = (   0.3455720   0.5780575   0.7088549  )
       484           O   tau( 484) = (   0.3457100   1.2926556   1.1276959  )
       485           O   tau( 485) = (   0.3452564   1.2930809   0.2896667  )
       486           O   tau( 486) = (   0.3456319   1.2927347   0.7085772  )
       487           O   tau( 487) = (   0.8274008   1.0585965   0.0786578  )
       488           O   tau( 488) = (   0.8279537   1.0592160   0.4985884  )
       489           O   tau( 489) = (   0.8298332   1.0601788   0.9150339  )
       490           O   tau( 490) = (   0.8283072   0.3448816   0.0801656  )
       491           O   tau( 491) = (   0.8282932   0.3448531   0.4996096  )
       492           O   tau( 492) = (   0.8282692   0.3451410   0.9187353  )
       493           O   tau( 493) = (   0.1613184   1.0595948   0.0798649  )
       494           O   tau( 494) = (   0.1613032   1.0593582   0.4989366  )
       495           O   tau( 495) = (   0.1610840   1.0594794   0.9181066  )
       496           O   tau( 496) = (   0.1617134   0.3451900   0.0801474  )
       497           O   tau( 497) = (   0.1615723   0.3450229   0.4994950  )
       498           O   tau( 498) = (   0.1616892   0.3451191   0.9186767  )
       499           O   tau( 499) = (   0.4931755   1.0620875   0.0817592  )
       500           O   tau( 500) = (   0.4946134   1.0595443   0.4992314  )
       501           O   tau( 501) = (   0.4949658   1.0595284   0.9180758  )
       502           O   tau( 502) = (   0.4949574   0.3452755   0.0801084  )
       503           O   tau( 503) = (   0.4948113   0.3448749   0.4995355  )
       504           O   tau( 504) = (   0.4950386   0.3453101   0.9188232  )
       505           O   tau( 505) = (   0.6531319   0.9663965   1.0955744  )

   Crystallographic axes

     site n.     atom                  positions (cryst. coord.)
         1           Mg  tau(   1) = (  0.5871707  0.3238679  0.7413970  )
         2           Mg  tau(   2) = (  0.5871667  0.3231443  0.0749236  )
         3           Mg  tau(   3) = (  0.5870364  0.3231334  0.4080029  )
         4           Mg  tau(   4) = (  0.5878352  0.8243377  0.7403293  )
         5           Mg  tau(   5) = (  0.5868630  0.8258161  0.0741981  )
         6           Mg  tau(   6) = (  0.5869680  0.8238935  0.4075769  )
         7           Mg  tau(   7) = (  0.9205036  0.3234081  0.7413555  )
         8           Mg  tau(   8) = (  0.9205078  0.3232510  0.0747738  )
         9           Mg  tau(   9) = (  0.9204109  0.3232228  0.4080112  )
        10           Mg  tau(  10) = (  0.9210147  0.8249608  0.7400822  )
        11           Mg  tau(  11) = (  0.9197383  0.8232524  0.0744176  )
        12           Mg  tau(  12) = (  0.9202976  0.8235799  0.4075430  )
        13           Mg  tau(  13) = (  0.2539812  0.3235155  0.7412730  )
        14           Mg  tau(  14) = (  0.2539167  0.3233170  0.0746547  )
        15           Mg  tau(  15) = (  0.2536748  0.3232449  0.4079370  )
        16           Mg  tau(  16) = (  0.2536738  0.8236466  0.7412034  )
        17           Mg  tau(  17) = (  0.2531122  0.8237563  0.0748050  )
        18           Mg  tau(  18) = (  0.2535486  0.8235799  0.4077878  )
        19           Mg  tau(  19) = (  0.5872751  0.3237872  0.9080652  )
        20           Mg  tau(  20) = (  0.5869636  0.3231329  0.2415209  )
        21           Mg  tau(  21) = (  0.5870666  0.3233593  0.5746087  )
        22           Mg  tau(  22) = (  0.5879146  0.8219581  0.9068735  )
        23           Mg  tau(  23) = (  0.5868264  0.8235452  0.2410882  )
        24           Mg  tau(  24) = (  0.5867753  0.8244040  0.5740097  )
        25           Mg  tau(  25) = (  0.9205906  0.3234573  0.9080594  )
        26           Mg  tau(  26) = (  0.9204946  0.3230515  0.2414355  )
        27           Mg  tau(  27) = (  0.9203967  0.3233944  0.5746544  )
        28           Mg  tau(  28) = (  0.9203968  0.8247152  0.9082238  )
        29           Mg  tau(  29) = (  0.9201822  0.8234911  0.2411054  )
        30           Mg  tau(  30) = (  0.9207403  0.8238318  0.5737398  )
        31           Mg  tau(  31) = (  0.2540637  0.3234844  0.9079614  )
        32           Mg  tau(  32) = (  0.2537775  0.3232490  0.2413245  )
        33           Mg  tau(  33) = (  0.2537213  0.3233363  0.5745668  )
        34           Mg  tau(  34) = (  0.2534029  0.8238210  0.9079779  )
        35           Mg  tau(  35) = (  0.2533766  0.8236939  0.2413080  )
        36           Mg  tau(  36) = (  0.2537909  0.8236838  0.5744331  )
        37           Mg  tau(  37) = (  0.7555310  0.5735445  0.7399700  )
        38           Mg  tau(  38) = (  0.7533360  0.5738293  0.0748043  )
        39           Mg  tau(  39) = (  0.7538657  0.5730116  0.4077172  )
        40           Mg  tau(  40) = (  0.7537782  0.0736819  0.7412314  )
        41           Mg  tau(  41) = (  0.7536900  0.0734782  0.0745844  )
        42           Mg  tau(  42) = (  0.7537259  0.0735697  0.4078953  )
        43           Mg  tau(  43) = (  0.0868700  0.5735532  0.7412810  )
        44           Mg  tau(  44) = (  0.0873816  0.5732600  0.0747967  )
        45           Mg  tau(  45) = (  0.0869360  0.5733389  0.4078282  )
        46           Mg  tau(  46) = (  0.0871955  0.0736472  0.7412215  )
        47           Mg  tau(  47) = (  0.0870341  0.0735089  0.0745813  )
        48           Mg  tau(  48) = (  0.0870399  0.0735172  0.4078947  )
        49           Mg  tau(  49) = (  0.4180561  0.5731096  0.7395988  )
        50           Mg  tau(  50) = (  0.4201907  0.5726544  0.0751745  )
        51           Mg  tau(  51) = (  0.4199404  0.5731086  0.4076586  )
        52           Mg  tau(  52) = (  0.4204755  0.0737280  0.7412645  )
        53           Mg  tau(  53) = (  0.4204167  0.0735806  0.0746262  )
        54           Mg  tau(  54) = (  0.4203605  0.0735888  0.4079371  )
        55           Mg  tau(  55) = (  0.7573000  0.5701365  0.9094723  )
        56           Mg  tau(  56) = (  0.7544503  0.5727888  0.2419754  )
        57           Mg  tau(  57) = (  0.7534800  0.5735054  0.5742732  )
        58           Mg  tau(  58) = (  0.7537481  0.0736237  0.9079077  )
        59           Mg  tau(  59) = (  0.7536929  0.0735198  0.2412744  )
        60           Mg  tau(  60) = (  0.7537820  0.0738662  0.5745387  )
        61           Mg  tau(  61) = (  0.0868423  0.5733114  0.9081370  )
        62           Mg  tau(  62) = (  0.0869264  0.5733404  0.2412739  )
        63           Mg  tau(  63) = (  0.0868998  0.5734026  0.5743289  )
        64           Mg  tau(  64) = (  0.0871252  0.0735947  0.9079156  )
        65           Mg  tau(  65) = (  0.0870220  0.0734988  0.2412587  )
        66           Mg  tau(  66) = (  0.0871613  0.0736589  0.5745422  )
        67           Mg  tau(  67) = (  0.4209829  0.5735531  0.9078264  )
        68           Mg  tau(  68) = (  0.4198957  0.5730152  0.2416842  )
        69           Mg  tau(  69) = (  0.4197479  0.5725684  0.5735599  )
        70           Mg  tau(  70) = (  0.4204533  0.0737390  0.9079405  )
        71           Mg  tau(  71) = (  0.4203484  0.0735759  0.2413041  )
        72           Mg  tau(  72) = (  0.4204466  0.0736283  0.5745915  )
        73           Mg  tau(  73) = (  0.7655893  0.7168957  0.8214617  )
        74           Mg  tau(  74) = (  0.7560671  0.7118790  0.1579333  )
        75           Mg  tau(  75) = (  0.7561774  0.7118924  0.4902534  )
        76           Mg  tau(  76) = (  0.7565732  0.2121111  0.8246133  )
        77           Mg  tau(  77) = (  0.7567260  0.2116614  0.1580379  )
        78           Mg  tau(  78) = (  0.7566380  0.2118607  0.4913016  )
        79           Mg  tau(  79) = (  0.0895281  0.7122109  0.8245906  )
        80           Mg  tau(  80) = (  0.0895511  0.7118463  0.1577417  )
        81           Mg  tau(  81) = (  0.0897306  0.7119579  0.4909742  )
        82           Mg  tau(  82) = (  0.0900748  0.2119101  0.8245904  )
        83           Mg  tau(  83) = (  0.0900157  0.2117285  0.1579046  )
        84           Mg  tau(  84) = (  0.0899480  0.2118632  0.4912596  )
        85           Mg  tau(  85) = (  0.4226443  0.7123403  0.8248528  )
        86           Mg  tau(  86) = (  0.4222410  0.7120171  0.1589293  )
        87           Mg  tau(  87) = (  0.4226178  0.7118729  0.4908536  )
        88           Mg  tau(  88) = (  0.4233906  0.2120645  0.8246361  )
        89           Mg  tau(  89) = (  0.4232714  0.2118475  0.1579132  )
        90           Mg  tau(  90) = (  0.4232474  0.2118624  0.4913386  )
        91           Mg  tau(  91) = (  0.7507877  0.4342766  0.9928736  )
        92           Mg  tau(  92) = (  0.7508563  0.4346248  0.3248312  )
        93           Mg  tau(  93) = (  0.7507412  0.4349797  0.6575982  )
        94           Mg  tau(  94) = (  0.7507646  0.9350426  0.9912172  )
        95           Mg  tau(  95) = (  0.7509125  0.9351586  0.3244825  )
        96           Mg  tau(  96) = (  0.7509668  0.9358742  0.6571388  )
        97           Mg  tau(  97) = (  0.0849764  0.4347031  0.9915184  )
        98           Mg  tau(  98) = (  0.0842677  0.4347708  0.3246566  )
        99           Mg  tau(  99) = (  0.0841565  0.4348422  0.6579091  )
       100           Mg  tau( 100) = (  0.0841281  0.9351917  0.9913498  )
       101           Mg  tau( 101) = (  0.0841215  0.9351407  0.3243660  )
       102           Mg  tau( 102) = (  0.0845743  0.9353394  0.6575858  )
       103           Mg  tau( 103) = (  0.4178407  0.4351868  0.9915650  )
       104           Mg  tau( 104) = (  0.4175432  0.4347167  0.3246529  )
       105           Mg  tau( 105) = (  0.4174459  0.4347399  0.6576202  )
       106           Mg  tau( 106) = (  0.4173331  0.9354780  0.9911681  )
       107           Mg  tau( 107) = (  0.4174343  0.9352474  0.3245491  )
       108           Mg  tau( 108) = (  0.4175208  0.9353850  0.6578815  )
       109           Mg  tau( 109) = (  0.5850204  0.6863525  0.0029828  )
       110           Mg  tau( 110) = (  0.5891929  0.6849616  0.3254931  )
       111           Mg  tau( 111) = (  0.5876036  0.6854634  0.6519760  )
       112           Mg  tau( 112) = (  0.5899786  0.1851456  0.9913159  )
       113           Mg  tau( 113) = (  0.5899314  0.1849847  0.3246426  )
       114           Mg  tau( 114) = (  0.5899811  0.1852062  0.6580219  )
       115           Mg  tau( 115) = (  0.9223557  0.6847522  0.9915482  )
       116           Mg  tau( 116) = (  0.9229524  0.6849149  0.3244331  )
       117           Mg  tau( 117) = (  0.9236923  0.6853676  0.6571365  )
       118           Mg  tau( 118) = (  0.9233679  0.1850124  0.9913241  )
       119           Mg  tau( 119) = (  0.9232713  0.1849413  0.3246279  )
       120           Mg  tau( 120) = (  0.9233454  0.1852038  0.6579502  )
       121           Mg  tau( 121) = (  0.2565227  0.6851104  0.9913959  )
       122           Mg  tau( 122) = (  0.2561313  0.6850469  0.3245323  )
       123           Mg  tau( 123) = (  0.2561857  0.6850803  0.6576253  )
       124           Mg  tau( 124) = (  0.2566911  0.1850741  0.9913223  )
       125           Mg  tau( 125) = (  0.2565597  0.1849724  0.3246332  )
       126           Mg  tau( 126) = (  0.2566650  0.1851349  0.6579752  )
       127           Mg  tau( 127) = (  0.9183296  0.4615484  0.8247105  )
       128           Mg  tau( 128) = (  0.9178667  0.4613444  0.1586038  )
       129           Mg  tau( 129) = (  0.9176525  0.4616370  0.4912310  )
       130           Mg  tau( 130) = (  0.9178896  0.9624780  0.8244054  )
       131           Mg  tau( 131) = (  0.9174356  0.9619139  0.1577652  )
       132           Mg  tau( 132) = (  0.9175873  0.9621088  0.4910361  )
       133           Mg  tau( 133) = (  0.2509150  0.4619284  0.8245919  )
       134           Mg  tau( 134) = (  0.2509038  0.4616359  0.1579521  )
       135           Mg  tau( 135) = (  0.2506016  0.4615858  0.4910303  )
       136           Mg  tau( 136) = (  0.2511305  0.9620686  0.8245278  )
       137           Mg  tau( 137) = (  0.2506688  0.9620518  0.1579080  )
       138           Mg  tau( 138) = (  0.2508858  0.9620622  0.4911487  )
       139           Mg  tau( 139) = (  0.5845186  0.4626563  0.8252401  )
       140           Mg  tau( 140) = (  0.5843152  0.4613817  0.1579936  )
       141           Mg  tau( 141) = (  0.5842093  0.4613523  0.4910081  )
       142           Mg  tau( 142) = (  0.5839596  0.9623261  0.8246708  )
       143           Mg  tau( 143) = (  0.5841735  0.9622840  0.1581149  )
       144           Mg  tau( 144) = (  0.5842395  0.9622485  0.4911059  )
       145           Si  tau( 145) = (  0.6082267  0.6210639  0.8121432  )
       146           Si  tau( 146) = (  0.6112272  0.6194366  0.1620418  )
       147           Si  tau( 147) = (  0.6112602  0.6198372  0.4899697  )
       148           Si  tau( 148) = (  0.6115445  0.1206484  0.8246203  )
       149           Si  tau( 149) = (  0.6114811  0.1204171  0.1579855  )
       150           Si  tau( 150) = (  0.6114899  0.1204842  0.4912671  )
       151           Si  tau( 151) = (  0.9444416  0.6205330  0.8246787  )
       152           Si  tau( 152) = (  0.9447864  0.6201736  0.1580129  )
       153           Si  tau( 153) = (  0.9446723  0.6202988  0.4910030  )
       154           Si  tau( 154) = (  0.9449039  0.1205450  0.8245812  )
       155           Si  tau( 155) = (  0.9448373  0.1202795  0.1579574  )
       156           Si  tau( 156) = (  0.9448706  0.1204216  0.4912425  )
       157           Si  tau( 157) = (  0.2777978  0.6203402  0.8245139  )
       158           Si  tau( 158) = (  0.2780387  0.6202218  0.1580751  )
       159           Si  tau( 159) = (  0.2778169  0.6202907  0.4909913  )
       160           Si  tau( 160) = (  0.2782472  0.1204979  0.8246071  )
       161           Si  tau( 161) = (  0.2781550  0.1203475  0.1579607  )
       162           Si  tau( 162) = (  0.2781693  0.1203909  0.4912903  )
       163           Si  tau( 163) = (  0.8978457  0.5247668  0.9929942  )
       164           Si  tau( 164) = (  0.8962945  0.5261054  0.3249333  )
       165           Si  tau( 165) = (  0.8963509  0.5264591  0.6574851  )
       166           Si  tau( 166) = (  0.8959674  0.0267549  0.9912204  )
       167           Si  tau( 167) = (  0.8959461  0.0266679  0.3245149  )
       168           Si  tau( 168) = (  0.8961616  0.0270234  0.6577439  )
       169           Si  tau( 169) = (  0.2294980  0.5265184  0.9911524  )
       170           Si  tau( 170) = (  0.2290385  0.5263527  0.3245431  )
       171           Si  tau( 171) = (  0.2286904  0.5263466  0.6576142  )
       172           Si  tau( 172) = (  0.2292810  0.0267412  0.9912213  )
       173           Si  tau( 173) = (  0.2292484  0.0266806  0.3245910  )
       174           Si  tau( 174) = (  0.2294210  0.0268116  0.6578789  )
       175           Si  tau( 175) = (  0.5632804  0.5266551  0.9920212  )
       176           Si  tau( 176) = (  0.5625687  0.5261417  0.3248181  )
       177           Si  tau( 177) = (  0.5624449  0.5265748  0.6570170  )
       178           Si  tau( 178) = (  0.5626113  0.0268437  0.9912128  )
       179           Si  tau( 179) = (  0.5626009  0.0267604  0.3246305  )
       180           Si  tau( 180) = (  0.5626642  0.0269116  0.6579184  )
       181           Si  tau( 181) = (  0.7772749  0.7765350  0.9905528  )
       182           Si  tau( 182) = (  0.7778358  0.7766562  0.3242715  )
       183           Si  tau( 183) = (  0.7782058  0.7774554  0.6558967  )
       184           Si  tau( 184) = (  0.7782868  0.2763888  0.9913022  )
       185           Si  tau( 185) = (  0.7781624  0.2763398  0.3247569  )
       186           Si  tau( 186) = (  0.7781896  0.2767054  0.6580436  )
       187           Si  tau( 187) = (  0.1112174  0.7766841  0.9912453  )
       188           Si  tau( 188) = (  0.1112411  0.7766130  0.3244362  )
       189           Si  tau( 189) = (  0.1115788  0.7768794  0.6575974  )
       190           Si  tau( 190) = (  0.1116772  0.2765182  0.9912331  )
       191           Si  tau( 191) = (  0.1115083  0.2764205  0.3246280  )
       192           Si  tau( 192) = (  0.1115857  0.2766085  0.6579701  )
       193           Si  tau( 193) = (  0.4437371  0.7778146  0.9915613  )
       194           Si  tau( 194) = (  0.4445820  0.7767471  0.3246301  )
       195           Si  tau( 195) = (  0.4446980  0.7770081  0.6579973  )
       196           Si  tau( 196) = (  0.4450054  0.2767094  0.9912285  )
       197           Si  tau( 197) = (  0.4447323  0.2763727  0.3247018  )
       198           Si  tau( 198) = (  0.4449390  0.2766713  0.6580604  )
       199           Si  tau( 199) = (  0.7295918  0.3707658  0.8247600  )
       200           Si  tau( 200) = (  0.7293653  0.3695766  0.1586043  )
       201           Si  tau( 201) = (  0.7293404  0.3699937  0.4912852  )
       202           Si  tau( 202) = (  0.7297949  0.8725809  0.8234576  )
       203           Si  tau( 203) = (  0.7291827  0.8706562  0.1581420  )
       204           Si  tau( 204) = (  0.7292933  0.8706308  0.4907573  )
       205           Si  tau( 205) = (  0.0629628  0.3701456  0.8246235  )
       206           Si  tau( 206) = (  0.0628219  0.3699143  0.1580921  )
       207           Si  tau( 207) = (  0.0626142  0.3701473  0.4913036  )
       208           Si  tau( 208) = (  0.0627314  0.8706617  0.8243832  )
       209           Si  tau( 209) = (  0.0622444  0.8703687  0.1578077  )
       210           Si  tau( 210) = (  0.0627433  0.8705674  0.4908650  )
       211           Si  tau( 211) = (  0.3962671  0.3705885  0.8246721  )
       212           Si  tau( 212) = (  0.3960066  0.3701234  0.1580776  )
       213           Si  tau( 213) = (  0.3958898  0.3701099  0.4912033  )
       214           Si  tau( 214) = (  0.3961737  0.8703933  0.8245282  )
       215           Si  tau( 215) = (  0.3956039  0.8706413  0.1580895  )
       216           Si  tau( 216) = (  0.3958294  0.8705481  0.4910742  )
       217           O   tau( 217) = (  0.8302401  0.6204889  0.8244837  )
       218           O   tau( 218) = (  0.8310111  0.6190652  0.1584547  )
       219           O   tau( 219) = (  0.8309043  0.6191705  0.4910076  )
       220           O   tau( 220) = (  0.8311304  0.1194692  0.8245662  )
       221           O   tau( 221) = (  0.8310586  0.1192637  0.1579640  )
       222           O   tau( 222) = (  0.8310921  0.1194255  0.4912310  )
       223           O   tau( 223) = (  0.1639543  0.6193088  0.8247069  )
       224           O   tau( 224) = (  0.1643054  0.6192091  0.1580205  )
       225           O   tau( 225) = (  0.1640814  0.6193030  0.4910857  )
       226           O   tau( 226) = (  0.1644726  0.1194368  0.8245836  )
       227           O   tau( 227) = (  0.1643763  0.1192868  0.1579389  )
       228           O   tau( 228) = (  0.1643951  0.1193573  0.4912737  )
       229           O   tau( 229) = (  0.4958629  0.6189118  0.8210968  )
       230           O   tau( 230) = (  0.4974102  0.6189636  0.1593981  )
       231           O   tau( 231) = (  0.4974783  0.6190811  0.4906324  )
       232           O   tau( 232) = (  0.4977547  0.1196083  0.8246026  )
       233           O   tau( 233) = (  0.4976922  0.1193708  0.1579862  )
       234           O   tau( 234) = (  0.4977101  0.1193991  0.4913090  )
       235           O   tau( 235) = (  0.6769389  0.5241736  0.9938849  )
       236           O   tau( 236) = (  0.6763608  0.5267417  0.3250755  )
       237           O   tau( 237) = (  0.6763188  0.5267829  0.6571887  )
       238           O   tau( 238) = (  0.6763790  0.0278594  0.9911873  )
       239           O   tau( 239) = (  0.6763687  0.0277948  0.3246048  )
       240           O   tau( 240) = (  0.6764351  0.0282205  0.6576745  )
       241           O   tau( 241) = (  0.0115684  0.5260348  0.9918041  )
       242           O   tau( 242) = (  0.0100174  0.5272017  0.3247092  )
       243           O   tau( 243) = (  0.0100372  0.5274335  0.6577931  )
       244           O   tau( 244) = (  0.0097741  0.0277760  0.9912160  )
       245           O   tau( 245) = (  0.0097238  0.0276943  0.3245491  )
       246           O   tau( 246) = (  0.0099408  0.0279290  0.6577451  )
       247           O   tau( 247) = (  0.3432220  0.5275286  0.9910759  )
       248           O   tau( 248) = (  0.3427936  0.5272645  0.3246301  )
       249           O   tau( 249) = (  0.3424749  0.5269779  0.6572291  )
       250           O   tau( 250) = (  0.3430602  0.0278273  0.9912490  )
       251           O   tau( 251) = (  0.3430218  0.0277604  0.3246150  )
       252           O   tau( 252) = (  0.3431839  0.0278313  0.6578727  )
       253           O   tau( 253) = (  0.6635522  0.7799377  0.9917653  )
       254           O   tau( 254) = (  0.6640762  0.7778748  0.3245222  )
       255           O   tau( 255) = (  0.6645268  0.7784659  0.6565049  )
       256           O   tau( 256) = (  0.6644995  0.2776480  0.9912560  )
       257           O   tau( 257) = (  0.6643821  0.2773438  0.3248089  )
       258           O   tau( 258) = (  0.6644124  0.2778756  0.6581184  )
       259           O   tau( 259) = (  0.9975178  0.7777867  0.9912530  )
       260           O   tau( 260) = (  0.9974724  0.7776089  0.3244120  )
       261           O   tau( 261) = (  0.9978229  0.7780946  0.6572167  )
       262           O   tau( 262) = (  0.9978948  0.2775475  0.9912848  )
       263           O   tau( 263) = (  0.9977453  0.2774226  0.3247131  )
       264           O   tau( 264) = (  0.9977970  0.2776788  0.6579684  )
       265           O   tau( 265) = (  0.3300361  0.7783256  0.9917317  )
       266           O   tau( 266) = (  0.3308128  0.7776915  0.3246009  )
       267           O   tau( 267) = (  0.3309637  0.7778125  0.6578183  )
       268           O   tau( 268) = (  0.3312249  0.2776386  0.9912329  )
       269           O   tau( 269) = (  0.3309644  0.2774399  0.3246615  )
       270           O   tau( 270) = (  0.3311573  0.2777177  0.6579749  )
       271           O   tau( 271) = (  0.8433707  0.3694437  0.8246184  )
       272           O   tau( 272) = (  0.8431398  0.3685453  0.1584024  )
       273           O   tau( 273) = (  0.8431079  0.3690387  0.4913351  )
       274           O   tau( 274) = (  0.8436769  0.8707802  0.8236633  )
       275           O   tau( 275) = (  0.8429397  0.8693857  0.1579707  )
       276           O   tau( 276) = (  0.8430735  0.8696380  0.4907516  )
       277           O   tau( 277) = (  0.1767417  0.3692173  0.8245330  )
       278           O   tau( 278) = (  0.1765925  0.3690022  0.1580709  )
       279           O   tau( 279) = (  0.1763831  0.3691210  0.4912721  )
       280           O   tau( 280) = (  0.1764991  0.8695016  0.8244797  )
       281           O   tau( 281) = (  0.1760444  0.8694775  0.1579673  )
       282           O   tau( 282) = (  0.1764987  0.8694955  0.4910827  )
       283           O   tau( 283) = (  0.5100808  0.3698158  0.8246955  )
       284           O   tau( 284) = (  0.5097529  0.3689399  0.1582029  )
       285           O   tau( 285) = (  0.5096562  0.3689625  0.4912520  )
       286           O   tau( 286) = (  0.5099975  0.8690497  0.8243233  )
       287           O   tau( 287) = (  0.5093978  0.8699246  0.1581326  )
       288           O   tau( 288) = (  0.5096100  0.8696610  0.4909630  )
       289           O   tau( 289) = (  0.6614290  0.5507577  0.8270432  )
       290           O   tau( 290) = (  0.6611408  0.5458180  0.1593181  )
       291           O   tau( 291) = (  0.6608849  0.5460661  0.4909247  )
       292           O   tau( 292) = (  0.6611252  0.0468278  0.8245397  )
       293           O   tau( 293) = (  0.6611343  0.0465869  0.1579583  )
       294           O   tau( 294) = (  0.6611907  0.0466597  0.4912504  )
       295           O   tau( 295) = (  0.9938049  0.5466267  0.8246154  )
       296           O   tau( 296) = (  0.9944562  0.5462830  0.1579217  )
       297           O   tau( 297) = (  0.9942950  0.5464278  0.4911688  )
       298           O   tau( 298) = (  0.9946988  0.0467336  0.8244918  )
       299           O   tau( 299) = (  0.9944957  0.0464375  0.1578970  )
       300           O   tau( 300) = (  0.9945310  0.0465767  0.4912252  )
       301           O   tau( 301) = (  0.3274779  0.5465090  0.8243197  )
       302           O   tau( 302) = (  0.3275191  0.5463172  0.1582181  )
       303           O   tau( 303) = (  0.3272143  0.5463147  0.4907979  )
       304           O   tau( 304) = (  0.3279305  0.0466644  0.8245464  )
       305           O   tau( 305) = (  0.3277994  0.0465072  0.1579132  )
       306           O   tau( 306) = (  0.3278446  0.0465505  0.4912817  )
       307           O   tau( 307) = (  0.8502677  0.5985549  0.9936420  )
       308           O   tau( 308) = (  0.8468041  0.5999681  0.3249476  )
       309           O   tau( 309) = (  0.8471327  0.6004347  0.6570575  )
       310           O   tau( 310) = (  0.8463170  0.1006067  0.9912824  )
       311           O   tau( 311) = (  0.8463018  0.1005081  0.3246012  )
       312           O   tau( 312) = (  0.8464047  0.1008252  0.6578227  )
       313           O   tau( 313) = (  0.1797794  0.6003915  0.9913043  )
       314           O   tau( 314) = (  0.1795571  0.6002613  0.3246243  )
       315           O   tau( 315) = (  0.1794084  0.6003149  0.6576955  )
       316           O   tau( 316) = (  0.1796476  0.1005880  0.9912811  )
       317           O   tau( 317) = (  0.1795834  0.1005179  0.3246211  )
       318           O   tau( 318) = (  0.1797519  0.1006428  0.6579062  )
       319           O   tau( 319) = (  0.5120938  0.6002259  0.9925828  )
       320           O   tau( 320) = (  0.5125567  0.5999360  0.3249904  )
       321           O   tau( 321) = (  0.5111931  0.5999675  0.6557067  )
       322           O   tau( 322) = (  0.5129551  0.1007077  0.9913275  )
       323           O   tau( 323) = (  0.5129014  0.1005843  0.3246826  )
       324           O   tau( 324) = (  0.5129424  0.1007453  0.6579207  )
       325           O   tau( 325) = (  0.8280155  0.3501807  0.9914339  )
       326           O   tau( 326) = (  0.8278983  0.3501699  0.3247945  )
       327           O   tau( 327) = (  0.8278799  0.3505687  0.6580968  )
       328           O   tau( 328) = (  0.8274210  0.8506562  0.9916950  )
       329           O   tau( 329) = (  0.8276717  0.8504866  0.3244378  )
       330           O   tau( 330) = (  0.8279176  0.8512296  0.6568092  )
       331           O   tau( 331) = (  0.1615439  0.3503184  0.9913008  )
       332           O   tau( 332) = (  0.1611725  0.3502805  0.3246589  )
       333           O   tau( 333) = (  0.1612761  0.3504665  0.6579596  )
       334           O   tau( 334) = (  0.1607468  0.8506272  0.9912787  )
       335           O   tau( 335) = (  0.1608771  0.8505010  0.3245912  )
       336           O   tau( 336) = (  0.1613549  0.8506881  0.6577085  )
       337           O   tau( 337) = (  0.4947173  0.3505530  0.9914045  )
       338           O   tau( 338) = (  0.4944149  0.3502111  0.3247784  )
       339           O   tau( 339) = (  0.4946071  0.3505546  0.6580343  )
       340           O   tau( 340) = (  0.4941109  0.8512530  0.9908402  )
       341           O   tau( 341) = (  0.4941714  0.8506024  0.3245284  )
       342           O   tau( 342) = (  0.4944456  0.8508131  0.6575842  )
       343           O   tau( 343) = (  0.6818806  0.7986174  0.8217845  )
       344           O   tau( 344) = (  0.6792946  0.7968959  0.1577157  )
       345           O   tau( 345) = (  0.6794720  0.7968001  0.4907877  )
       346           O   tau( 346) = (  0.6798401  0.2969539  0.8245808  )
       347           O   tau( 347) = (  0.6795253  0.2957754  0.1584295  )
       348           O   tau( 348) = (  0.6795886  0.2961794  0.4913337  )
       349           O   tau( 349) = (  0.0125983  0.7969642  0.8241427  )
       350           O   tau( 350) = (  0.0126406  0.7964896  0.1577812  )
       351           O   tau( 351) = (  0.0131229  0.7966782  0.4907717  )
       352           O   tau( 352) = (  0.0131175  0.2963637  0.8245317  )
       353           O   tau( 353) = (  0.0131010  0.2960847  0.1581132  )
       354           O   tau( 354) = (  0.0129617  0.2963041  0.4913393  )
       355           O   tau( 355) = (  0.3460586  0.7966441  0.8245775  )
       356           O   tau( 356) = (  0.3458496  0.7967916  0.1582590  )
       357           O   tau( 357) = (  0.3462280  0.7966450  0.4910836  )
       358           O   tau( 358) = (  0.3466891  0.2966896  0.8245433  )
       359           O   tau( 359) = (  0.3463123  0.2962645  0.1579928  )
       360           O   tau( 360) = (  0.3461948  0.2962691  0.4912498  )
       361           O   tau( 361) = (  0.6840291  0.6477970  0.9413001  )
       362           O   tau( 362) = (  0.6617644  0.6534446  0.2347047  )
       363           O   tau( 363) = (  0.6617100  0.6553148  0.5618967  )
       364           O   tau( 364) = (  0.6617155  0.1554158  0.8972607  )
       365           O   tau( 365) = (  0.6616473  0.1550923  0.2306727  )
       366           O   tau( 366) = (  0.6616360  0.1553425  0.5638820  )
       367           O   tau( 367) = (  0.9946111  0.6551949  0.8973070  )
       368           O   tau( 368) = (  0.9949252  0.6548667  0.2307985  )
       369           O   tau( 369) = (  0.9950221  0.6551964  0.5635519  )
       370           O   tau( 370) = (  0.9950892  0.1552456  0.8972515  )
       371           O   tau( 371) = (  0.9950000  0.1550377  0.2306118  )
       372           O   tau( 372) = (  0.9950208  0.1552386  0.5638723  )
       373           O   tau( 373) = (  0.3284191  0.6551195  0.8970002  )
       374           O   tau( 374) = (  0.3279654  0.6550523  0.2308089  )
       375           O   tau( 375) = (  0.3281245  0.6549335  0.5636365  )
       376           O   tau( 376) = (  0.3283866  0.1552858  0.8972542  )
       377           O   tau( 377) = (  0.3282758  0.1551074  0.2306218  )
       378           O   tau( 378) = (  0.3283267  0.1552035  0.5639235  )
       379           O   tau( 379) = (  0.8465862  0.4898814  0.0648537  )
       380           O   tau( 380) = (  0.8459779  0.4914120  0.3974858  )
       381           O   tau( 381) = (  0.8460981  0.4922436  0.7305498  )
       382           O   tau( 382) = (  0.8458279  0.9919925  0.0637988  )
       383           O   tau( 383) = (  0.8458023  0.9919275  0.3971288  )
       384           O   tau( 384) = (  0.8461356  0.9922835  0.7303322  )
       385           O   tau( 385) = (  0.1798155  0.4916470  0.0638803  )
       386           O   tau( 386) = (  0.1789428  0.4915905  0.3971578  )
       387           O   tau( 387) = (  0.1789035  0.4917286  0.7304115  )
       388           O   tau( 388) = (  0.1791101  0.9919350  0.0637969  )
       389           O   tau( 389) = (  0.1791203  0.9919147  0.3971918  )
       390           O   tau( 390) = (  0.1793667  0.9920166  0.7304732  )
       391           O   tau( 391) = (  0.5119753  0.4914520  0.0641622  )
       392           O   tau( 392) = (  0.5121613  0.4913735  0.3973655  )
       393           O   tau( 393) = (  0.5134270  0.4928480  0.7308242  )
       394           O   tau( 394) = (  0.5124721  0.9920376  0.0638052  )
       395           O   tau( 395) = (  0.5124163  0.9919863  0.3972146  )
       396           O   tau( 396) = (  0.5123795  0.9921858  0.7304970  )
       397           O   tau( 397) = (  0.8296800  0.7440642  0.9173183  )
       398           O   tau( 398) = (  0.8279611  0.7419026  0.2516148  )
       399           O   tau( 399) = (  0.8284392  0.7424264  0.5836356  )
       400           O   tau( 400) = (  0.8284163  0.2417800  0.9185652  )
       401           O   tau( 401) = (  0.8283585  0.2414978  0.2521859  )
       402           O   tau( 402) = (  0.8282811  0.2418954  0.5854137  )
       403           O   tau( 403) = (  0.1614238  0.7419889  0.9185258  )
       404           O   tau( 404) = (  0.1614215  0.7418778  0.2518104  )
       405           O   tau( 405) = (  0.1617141  0.7419521  0.5850329  )
       406           O   tau( 406) = (  0.1618240  0.2418213  0.9185541  )
       407           O   tau( 407) = (  0.1616606  0.2416348  0.2520170  )
       408           O   tau( 408) = (  0.1616841  0.2418071  0.5853300  )
       409           O   tau( 409) = (  0.4931553  0.7416753  0.9199907  )
       410           O   tau( 410) = (  0.4947727  0.7418430  0.2521207  )
       411           O   tau( 411) = (  0.4944352  0.7422812  0.5848586  )
       412           O   tau( 412) = (  0.4951682  0.2420465  0.9185403  )
       413           O   tau( 413) = (  0.4948824  0.2416013  0.2520798  )
       414           O   tau( 414) = (  0.4950033  0.2418629  0.5854223  )
       415           O   tau( 415) = (  0.6794488  0.4060298  0.7524069  )
       416           O   tau( 416) = (  0.6790147  0.4041612  0.0861063  )
       417           O   tau( 417) = (  0.6791172  0.4047146  0.4187280  )
       418           O   tau( 418) = (  0.6791706  0.9073725  0.7510934  )
       419           O   tau( 419) = (  0.6791207  0.9061272  0.0858956  )
       420           O   tau( 420) = (  0.6790199  0.9054201  0.4182697  )
       421           O   tau( 421) = (  0.0126893  0.4050552  0.7521014  )
       422           O   tau( 422) = (  0.0128808  0.4045974  0.0854589  )
       423           O   tau( 423) = (  0.0124896  0.4048990  0.4187109  )
       424           O   tau( 424) = (  0.0130914  0.9056304  0.7516459  )
       425           O   tau( 425) = (  0.0121943  0.9052002  0.0852467  )
       426           O   tau( 426) = (  0.0124845  0.9053143  0.4183509  )
       427           O   tau( 427) = (  0.3461746  0.4053361  0.7520044  )
       428           O   tau( 428) = (  0.3459338  0.4049131  0.0854726  )
       429           O   tau( 429) = (  0.3456937  0.4048788  0.4186410  )
       430           O   tau( 430) = (  0.3460760  0.9051655  0.7518709  )
       431           O   tau( 431) = (  0.3455728  0.9053259  0.0853971  )
       432           O   tau( 432) = (  0.3456531  0.9052781  0.4185084  )
       433           O   tau( 433) = (  0.8475114  0.4906806  0.9195671  )
       434           O   tau( 434) = (  0.8460828  0.4912476  0.2523939  )
       435           O   tau( 435) = (  0.8458862  0.4914842  0.5851902  )
       436           O   tau( 436) = (  0.8459548  0.9920565  0.9184948  )
       437           O   tau( 437) = (  0.8457654  0.9918892  0.2518867  )
       438           O   tau( 438) = (  0.8459306  0.9922209  0.5851035  )
       439           O   tau( 439) = (  0.1794053  0.4917780  0.9184630  )
       440           O   tau( 440) = (  0.1789733  0.4915989  0.2518855  )
       441           O   tau( 441) = (  0.1786590  0.4916201  0.5849616  )
       442           O   tau( 442) = (  0.1792539  0.9919629  0.9185399  )
       443           O   tau( 443) = (  0.1790436  0.9918971  0.2519616  )
       444           O   tau( 444) = (  0.1792550  0.9919883  0.5852424  )
       445           O   tau( 445) = (  0.5132206  0.4925756  0.9186569  )
       446           O   tau( 446) = (  0.5123529  0.4914067  0.2521516  )
       447           O   tau( 447) = (  0.5121040  0.4908193  0.5850658  )
       448           O   tau( 448) = (  0.5122940  0.9922215  0.9185331  )
       449           O   tau( 449) = (  0.5123704  0.9920031  0.2520158  )
       450           O   tau( 450) = (  0.5125614  0.9920187  0.5852948  )
       451           O   tau( 451) = (  0.6596117  0.6504679  0.7386816  )
       452           O   tau( 452) = (  0.6611658  0.6561407  0.0912521  )
       453           O   tau( 453) = (  0.6617133  0.6545281  0.4176406  )
       454           O   tau( 454) = (  0.6617027  0.1554482  0.7520309  )
       455           O   tau( 455) = (  0.6616217  0.1551560  0.0853796  )
       456           O   tau( 456) = (  0.6616446  0.1551739  0.4186530  )
       457           O   tau( 457) = (  0.9944599  0.6552663  0.7519515  )
       458           O   tau( 458) = (  0.9952725  0.6552389  0.0857304  )
       459           O   tau( 459) = (  0.9948718  0.6550612  0.4184521  )
       460           O   tau( 460) = (  0.9950634  0.1552996  0.7519737  )
       461           O   tau( 461) = (  0.9950075  0.1550759  0.0853776  )
       462           O   tau( 462) = (  0.9950388  0.1551316  0.4186355  )
       463           O   tau( 463) = (  0.3271962  0.6551629  0.7516247  )
       464           O   tau( 464) = (  0.3284378  0.6550221  0.0855903  )
       465           O   tau( 465) = (  0.3280372  0.6550804  0.4184590  )
       466           O   tau( 466) = (  0.3283667  0.1553065  0.7520140  )
       467           O   tau( 467) = (  0.3283107  0.1551483  0.0853823  )
       468           O   tau( 468) = (  0.3282853  0.1551281  0.4186813  )
       469           O   tau( 469) = (  0.6795791  0.4057450  0.8972963  )
       470           O   tau( 470) = (  0.6792083  0.4044444  0.2311350  )
       471           O   tau( 471) = (  0.6791563  0.4048066  0.5638540  )
       472           O   tau( 472) = (  0.6792836  0.9060632  0.8965860  )
       473           O   tau( 473) = (  0.6790140  0.9052651  0.2308735  )
       474           O   tau( 474) = (  0.6791642  0.9055844  0.5633321  )
       475           O   tau( 475) = (  0.0130146  0.4048819  0.8972935  )
       476           O   tau( 476) = (  0.0126156  0.4047420  0.2307011  )
       477           O   tau( 477) = (  0.0124574  0.4049648  0.5639250  )
       478           O   tau( 478) = (  0.0127432  0.9055906  0.8969929  )
       479           O   tau( 479) = (  0.0122467  0.9051365  0.2305174  )
       480           O   tau( 480) = (  0.0126420  0.9053371  0.5635508  )
       481           O   tau( 481) = (  0.3461251  0.4052702  0.8973225  )
       482           O   tau( 482) = (  0.3457912  0.4048904  0.2306922  )
       483           O   tau( 483) = (  0.3456777  0.4049241  0.5637987  )
       484           O   tau( 484) = (  0.3459244  0.9053403  0.8970311  )
       485           O   tau( 485) = (  0.3454307  0.9054244  0.2307058  )
       486           O   tau( 486) = (  0.3458262  0.9052888  0.5637856  )
       487           O   tau( 487) = (  0.8275359  0.7412434  0.0628804  )
       488           O   tau( 488) = (  0.8281089  0.7417842  0.3967717  )
       489           O   tau( 489) = (  0.8300085  0.7425646  0.7278920  )
       490           O   tau( 490) = (  0.8283538  0.2415529  0.0638718  )
       491           O   tau( 491) = (  0.8283599  0.2416398  0.3973760  )
       492           O   tau( 492) = (  0.8283561  0.2419482  0.7306271  )
       493           O   tau( 493) = (  0.1614536  0.7418851  0.0638154  )
       494           O   tau( 494) = (  0.1614585  0.7418263  0.3970235  )
       495           O   tau( 495) = (  0.1612594  0.7420180  0.7303098  )
       496           O   tau( 496) = (  0.1617601  0.2417112  0.0638324  )
       497           O   tau( 497) = (  0.1616390  0.2417011  0.3972599  )
       498           O   tau( 498) = (  0.1617761  0.2418753  0.7305555  )
       499           O   tau( 499) = (  0.4933112  0.7436595  0.0653348  )
       500           O   tau( 500) = (  0.4947687  0.7419854  0.3972705  )
       501           O   tau( 501) = (  0.4951412  0.7420811  0.7302979  )
       502           O   tau( 502) = (  0.4950041  0.2417998  0.0638139  )
       503           O   tau( 503) = (  0.4948780  0.2416263  0.3973046  )
       504           O   tau( 504) = (  0.4951255  0.2420379  0.7306846  )
       505           O   tau( 505) = (  0.6533043  0.6769359  0.8714077  )

     number of k points=     1
                       cart. coord. in units 2pi/alat
        k(    1) = (   0.0000000   0.0000000   0.0000000), wk =   2.0000000

                       cryst. coord.
        k(    1) = (   0.0000000   0.0000000   0.0000000), wk =   2.0000000

     Dense  grid:  3425419 G-vectors     FFT dimensions: ( 160, 225, 200)

     Smooth grid:  1211179 G-vectors     FFT dimensions: ( 120, 160, 144)

     Dynamical RAM for                 wfc:      99.95 MB

     Dynamical RAM for     wfc (w. buffer):      99.95 MB

     Dynamical RAM for           str. fact:       3.92 MB

     Dynamical RAM for           local pot:       0.00 MB

     Dynamical RAM for          nlocal pot:     366.30 MB

     Dynamical RAM for                qrad:       5.74 MB

     Dynamical RAM for          rho,v,vnew:       8.04 MB

     Dynamical RAM for               rhoin:       2.68 MB

     Dynamical RAM for            rho*nmix:      20.91 MB

     Dynamical RAM for           G-vectors:       5.13 MB

     Dynamical RAM for          h,s,v(r/c):     548.65 MB

     Dynamical RAM for          <psi|beta>:     167.56 MB

     Dynamical RAM for                 psi:     199.89 MB

     Dynamical RAM for                hpsi:     199.89 MB

     Dynamical RAM for                spsi:     199.89 MB

     Dynamical RAM for      wfcinit/wfcrot:     357.10 MB

     Dynamical RAM for           addusdens:     645.50 MB

     Dynamical RAM for          addusforce:    1400.06 MB

     Estimated static dynamical RAM per process >     503.85 MB

     Estimated max dynamical RAM per process >       1.88 GB

     Estimated total dynamical RAM >      75.19 GB

     Check: negative core charge=   -0.000004

     The initial density is read from file :
     ./out/aiida.save/charge-density

     Starting wfcs are 2164 randomized atomic wfcs
     Checking if some PAW data can be deallocated... 
       PAW data deallocated on   16 nodes for type:  2

     total cpu time spent up to now is       62.8 secs

     Self-consistent Calculation

     iteration #  1     ecut=    40.00 Ry     beta= 0.70
     Davidson diagonalization with overlap

---- Real-time Memory Report at c_bands before calling an iterative solver
          1435 MiB given to the printing process from OS
             0 MiB allocation reported by mallinfo(arena+hblkhd)
        726398 MiB available memory on the node where the printing process lives
------------------
     ethr =  1.00E-05,  avg # of iterations =  7.0

     Threshold (ethr) on eigenvalues was too large:
     Diagonalizing with lowered threshold

     Davidson diagonalization with overlap

---- Real-time Memory Report at c_bands before calling an iterative solver
          2495 MiB given to the printing process from OS
             0 MiB allocation reported by mallinfo(arena+hblkhd)
        722525 MiB available memory on the node where the printing process lives
------------------
     ethr =  2.63E-09,  avg # of iterations =  8.0
 
     Expectation value of exp(iGx):
 (-1.526037739195204E-010,-7.799531768050255E-011)   1.00000000000000     
     Electronic Dipole per cell (Ry a.u.)  -32.4644296106292     
     Ionic Dipole per cell (Ry a.u.)   66659.8520045742     
 
     Expectation value of exp(iGx):
 (1.975451197569155E-005,4.181057215538879E-006)   1.42831277972658     
     Electronic Dipole per cell (Ry a.u.)   3.62345243735206     
     Ionic Dipole per cell (Ry a.u.)   95584.4382526383     
  error: translated G=  0.000000000000000E+000  0.000000000000000E+000
 -0.795109990420963       with crystal coordinates           0           0
          -1  corresponds to ng=           2  but G(ng)= -3.753196446866376E-005
 -2.906841730317554E-004 -0.795110098058144     
  probably because G_par is NOT a reciprocal lattice vector 
  Possible choices as smallest  G_par:
  i=           1    G=  0.000000000000000E+000  0.000000000000000E+000
  0.000000000000000E+000
  i=           2    G= -3.753196446866376E-005 -2.906841730317554E-004
 -0.795110098058144     
  i=           3    G=  3.753196446866376E-005  2.906841730317554E-004
  0.795110098058144     
  i=           4    G= -7.506392893732753E-005 -5.813683460635107E-004
  -1.59022019611629     
  i=           5    G=  7.506392893732753E-005  5.813683460635107E-004
   1.59022019611629     
  i=           6    G= -1.125958934059913E-004 -8.720525190952660E-004
  -2.38533029417443     
  i=           7    G=  1.125958934059913E-004  8.720525190952660E-004
   2.38533029417443     
  i=           8    G= -1.501278578746551E-004 -1.162736692127021E-003
  -3.18044039223258     
  i=           9    G=  1.501278578746551E-004  1.162736692127021E-003
   3.18044039223258     
  i=          10    G= -1.876598223433188E-004 -1.453420865158777E-003
  -3.97555049029072     
  i=          11    G=  1.876598223433188E-004  1.453420865158777E-003
   3.97555049029072     
  i=          12    G= -2.251917868119826E-004 -1.744105038190532E-003
  -4.77066058834887     
  i=          13    G=  2.251917868119826E-004  1.744105038190532E-003
   4.77066058834887     
  i=          14    G= -6.045060517677808E-004  -4.90088841868180     
 -1.784463805721494E-003
  i=          15    G= -5.669740872991171E-004  -4.90059773450877     
  0.793325634252423     
  i=          16    G= -6.420380162364445E-004  -4.90117910285483     
 -0.796894561863866     
  i=          17    G=   5.00000013135269       6.199880459315835E-004
  2.397291134278076E-004
  i=          18    G=   4.99996259938823       3.293038728998282E-004
 -0.794870368944717     
  i=          19    G=   5.00003766331716       9.106722189633390E-004
  0.795349827171572     
  i=          20    G= -5.294421228304533E-004  -4.90030705033574     
   1.58843573231057     
  i=          21    G= -6.795699807051084E-004  -4.90146978702786     
  -1.59200465992201     
  i=          22    G=   4.99992506742376       3.861969986807283E-005
  -1.58998046700286     
  i=          23    G=   5.00007519528163       1.201356391995094E-003
   1.59045992522972     
  i=          24    G=  -1.99939554648931        4.90064042346343     
  1.688572160350371E-003
  i=          25    G=  -1.99943307845378        4.90034973929040     
 -0.793421525897794     
  i=          26    G=  -1.99935801452484        4.90093110763646     
  0.796798670218495     
  i=          27    G= -4.919101583617895E-004  -4.90001636616271     
   2.38354583036871     
  i=          28    G= -7.171019451737721E-004  -4.90176047120090     
  -2.38711475798015     
  i=          29    G=  -1.99947061041825        4.90005905511737     
  -1.58853162395594     
  i=          30    G=  -1.99932048256037        4.90122179180949     
   1.59190876827664     
  i=          31    G=   4.99988753545929      -2.520644731636825E-004
  -2.38509056506101     
  i=          32    G=   5.00011272724610       1.492040565026850E-003
   2.38557002328786     
  i=          33    G= -2.627237512806463E-004 -2.034789211222287E-003
  -5.56577068640701     
  i=          34    G=  2.627237512806463E-004  2.034789211222287E-003
   5.56577068640701     
  i=          35    G=   5.00034556338228        2.80112765586410     
  1.259422716697233E-003
  i=          36    G=   5.00030803141781        2.80083697169107     
 -0.793850675341447     
  i=          37    G=   5.00038309534674        2.80141834003714     
  0.796369520774842     
  i=          38    G=  -1.99950814238272        4.89976837094433     
  -2.38364172201408     
  i=          39    G=  -1.99928295059590        4.90151247598252     
   2.38701886633478     
  i=          40    G= -4.543781938931257E-004  -4.89972568198967     
   3.17865592842686     
  i=          41    G= -7.546339096424358E-004  -4.90205115537393     
  -3.18222485603830     
  i=          42    G=   4.99985000349482      -5.427486461954379E-004
  -3.18020066311915     
  i=          43    G=   5.00015025921057       1.782724738058605E-003
   3.18068012134601     
  i=          44    G=   5.00027049945334        2.80054628751804     
  -1.58896077339959     
  i=          45    G=   5.00042062731121        2.80170902421017     
   1.59147961883299     
  i=          46    G=  -1.99954567434718        4.89947768677130     
  -3.17875182007223     
  i=          47    G=  -1.99924541863144        4.90180316015556     
   3.18212896439293     
  i=          48    G=   5.00023296748887        2.80025560334501     
  -2.38407087145774     
  i=          49    G=   5.00045815927568        2.80199970838320     
   2.38658971689113     
  i=          50    G= -4.168462294244620E-004  -4.89943499781664     
   3.97376602648500     
