
     Program PWSCF v.6.7+ starts on 19Nov2021 at 13:55:46 

     This program is part of the open-source Quantum ESPRESSO suite
     for quantum simulation of materials; please cite
         "P. Giannozzi et al., J. Phys.:Condens. Matter 21 395502 (2009);
         "P. Giannozzi et al., J. Phys.:Condens. Matter 29 465901 (2017);
          URL http://www.quantum-espresso.org", 
     in publications or presentations arising from this work. More details at
     http://www.quantum-espresso.org/quote

     Parallel version (MPI), running on     4 processors

     MPI processes distributed on     1 nodes
     R & G space division:  proc/nbgrp/npool/nimage =       4
     Waiting for input...
     Reading input from standard input

     Current dimensions of program PWSCF are:
     Max number of different atomic species (ntypx) = 10
     Max number of k-points (npk) =  40000
     Max angular momentum in pseudopotentials (lmaxx) =  3
     file C.pbe-rrkjus.UPF: wavefunction(s)  2S 2P renormalized
     file O.pbe-rrkjus.UPF: wavefunction(s)  2S renormalized

     Subspace diagonalization in iterative solution of the eigenvalue problem:
     one sub-group per band group will be used
     scalapack distributed-memory algorithm (size of sub-group:  2*  2 procs)

 
     Parallelization info
     --------------------
     sticks:   dense  smooth     PW     G-vecs:    dense   smooth      PW
     Min         551     274     67                82723    29232    3641
     Max         552     275     68                82731    29247    3646
     Sum        2205    1099    269               330909   116965   14571
 


     bravais-lattice index     =            8
     lattice parameter (alat)  =      10.6881  a.u.
     unit-cell volume          =    4181.1215 (a.u.)^3
     number of atoms/cell      =           10
     number of atomic types    =            3
     number of electrons       =        89.00
     number of Kohn-Sham states=           80
     kinetic-energy cutoff     =      35.0000  Ry
     charge density cutoff     =     280.0000  Ry
     scf convergence threshold =      5.0E-09
     mixing beta               =       0.2000
     number of iterations used =            8  plain     mixing
     Exchange-correlation= SLA  PW   PBE  PBE
                           (   1   4   3   4   0   0   0)
 

     Environ Module
     ==============

     Plese cite
         O. Andreussi, I. Dabo and N. Marzari, J. Chem. Phys. 136, 064102 (2012)         
     in publications or presentations arising from this work.

     compensation onset threshold      =               0.1000E+01 

     Electrostatic Setup
     -------------------
     electrostatic problem to solve    = poisson                  
     numerical solver adopted          = direct                   
     type of auxiliary density adopted = none                     
     type of core tool for poisson     = fft                      
     type of core tool for s(r) deriv  = analytic                 



     celldm(1)=  10.688100  celldm(2)=   0.866025  celldm(3)=   3.954220
     celldm(4)=   0.000000  celldm(5)=   0.000000  celldm(6)=   0.000000

     crystal axes: (cart. coord. in units of alat)
               a(1) = (   1.000000   0.000000   0.000000 )  
               a(2) = (   0.000000   0.866025   0.000000 )  
               a(3) = (   0.000000   0.000000   3.954220 )  

     reciprocal axes: (cart. coord. in units 2 pi/alat)
               b(1) = (  1.000000  0.000000  0.000000 )  
               b(2) = (  0.000000  1.154701  0.000000 )  
               b(3) = (  0.000000  0.000000  0.252894 )  


     PseudoPot. # 1 for C  read from file:
     /p/project/pra121/vijay1/bin/qe/q-e_6-7/pseudo/C.pbe-rrkjus.UPF
     MD5 check sum: c9ac5a99bc85b198593446162950cd17
     Pseudo is Ultrasoft, Zval =  4.0
     Generated by new atomic code, or converted to UPF format
     Using radial grid of  627 points,  4 beta functions with: 
                l(1) =   0
                l(2) =   0
                l(3) =   1
                l(4) =   1
     Q(r) pseudized with 0 coefficients 


     PseudoPot. # 2 for O  read from file:
     /p/project/pra121/vijay1/bin/qe/q-e_6-7/pseudo/O.pbe-rrkjus.UPF
     MD5 check sum: fadcf19ee70a498d3030e2e79cf929a4
     Pseudo is Ultrasoft, Zval =  6.0
     Generated by new atomic code, or converted to UPF format
     Using radial grid of 1269 points,  4 beta functions with: 
                l(1) =   0
                l(2) =   0
                l(3) =   1
                l(4) =   1
     Q(r) pseudized with 0 coefficients 


     PseudoPot. # 3 for Pt read from file:
     /p/project/pra121/vijay1/bin/qe/q-e_6-7/pseudo/Pt.pbe-nd-rrkjus.UPF
     MD5 check sum: b34016df742983190e94d0e746921a01
     Pseudo is Ultrasoft + core correction, Zval = 10.0
     Generated by new atomic code, or converted to UPF format
     Using radial grid of 1547 points,  3 beta functions with: 
                l(1) =   1
                l(2) =   2
                l(3) =   2
     Q(r) pseudized with 0 coefficients 


     atomic species   valence    mass     pseudopotential
        C              4.00     1.00000     C ( 1.00)
        O              6.00     1.00000     O ( 1.00)
        Pt            10.00     1.00000     Pt( 1.00)

     No symmetry found


                                    s                        frac. trans.

      isym =  1     identity                                     

 cryst.   s( 1) = (     1          0          0      )
                  (     0          1          0      )
                  (     0          0          1      )

 cart.    s( 1) = (  1.0000000  0.0000000  0.0000000 )
                  (  0.0000000  1.0000000  0.0000000 )
                  (  0.0000000  0.0000000  1.0000000 )


     point group C_1 (1)    
     there are  1 classes
     the character table:

       E    
A      1.00

     the symmetry operations in each class and the name of the first element:

     E        1
          identity                                               

   Cartesian axes

     site n.     atom                  positions (alat units)
         1           C   tau(   1) = (   0.4991611   0.4347567   1.2070461  )
         2           O   tau(   2) = (   0.4991542   0.4322212   1.4109013  )
         3           Pt  tau(   3) = (   0.7542339   0.0091745   0.8413229  )
         4           Pt  tau(   4) = (   0.2441023   0.0091745   0.8413226  )
         5           Pt  tau(   5) = (   0.0000034   0.4416918   0.8391348  )
         6           Pt  tau(   6) = (   0.4991682   0.4417635   0.8776299  )
         7           Pt  tau(   7) = (   0.0000038   0.7300598   0.4308181  )
         8           Pt  tau(   8) = (   0.4991683   0.7202168   0.4447460  )
         9           Pt  tau(   9) = (   0.2524172   0.2949237   0.4386572  )
        10           Pt  tau(  10) = (   0.7459196   0.2949237   0.4386575  )

   Crystallographic axes

     site n.     atom                  positions (cryst. coord.)
         1           C   tau(   1) = (  0.4991611  0.5020141  0.3052552  )
         2           O   tau(   2) = (  0.4991542  0.4990863  0.3568090  )
         3           Pt  tau(   3) = (  0.7542339  0.0105938  0.2127658  )
         4           Pt  tau(   4) = (  0.2441023  0.0105938  0.2127658  )
         5           Pt  tau(   5) = (  0.0000034  0.5100220  0.2122125  )
         6           Pt  tau(   6) = (  0.4991682  0.5101048  0.2219477  )
         7           Pt  tau(   7) = (  0.0000038  0.8430008  0.1089515  )
         8           Pt  tau(   8) = (  0.4991683  0.8316351  0.1124738  )
         9           Pt  tau(   9) = (  0.2524172  0.3405487  0.1109339  )
        10           Pt  tau(  10) = (  0.7459196  0.3405488  0.1109340  )

     number of k points=     1  Marzari-Vanderbilt smearing, width (Ry)=  0.0300
                       cart. coord. in units 2pi/alat
        k(    1) = (   0.0000000   0.0000000   0.0000000), wk =   2.0000000

                       cryst. coord.
        k(    1) = (   0.0000000   0.0000000   0.0000000), wk =   2.0000000

     Dense  grid:   330909 G-vectors     FFT dimensions: (  60,  50, 225)

     Smooth grid:   116965 G-vectors     FFT dimensions: (  45,  36, 160)

     Dynamical RAM for                 wfc:       4.46 MB

     Dynamical RAM for     wfc (w. buffer):       4.46 MB

     Dynamical RAM for           str. fact:       3.79 MB

     Dynamical RAM for           local pot:       0.00 MB

     Dynamical RAM for          nlocal pot:       6.69 MB

     Dynamical RAM for                qrad:       1.92 MB

     Dynamical RAM for          rho,v,vnew:       7.70 MB

     Dynamical RAM for               rhoin:       2.57 MB

     Dynamical RAM for            rho*nmix:      20.20 MB

     Dynamical RAM for           G-vectors:       4.96 MB

     Dynamical RAM for          h,s,v(r/c):       0.29 MB

     Dynamical RAM for          <psi|beta>:       0.15 MB

     Dynamical RAM for                 psi:       8.92 MB

     Dynamical RAM for                hpsi:       8.92 MB

     Dynamical RAM for                spsi:       8.92 MB

     Dynamical RAM for      wfcinit/wfcrot:       9.07 MB

     Dynamical RAM for           addusdens:     143.91 MB

     Dynamical RAM for          addusforce:     162.23 MB

     Estimated static dynamical RAM per process >      63.86 MB

     Estimated max dynamical RAM per process >     226.09 MB

     Estimated total dynamical RAM >     904.34 MB

     Check: negative core charge=   -0.000038

     Initial potential from superposition of free atoms

     starting charge   89.99875, renormalised to   89.00000

     negative rho (up, down):  7.106E-05 0.000E+00
     Starting wfcs are   56 randomized atomic wfcs +   24 random wfcs

     total cpu time spent up to now is        2.1 secs

     Self-consistent Calculation

     iteration #  1     ecut=    35.00 Ry     beta= 0.20
     Davidson diagonalization with overlap
     ethr =  1.00E-02,  avg # of iterations =  8.0

     negative rho (up, down):  7.321E-05 0.000E+00

     total cpu time spent up to now is        3.3 secs

     total energy              =    -735.17457460 Ry
     estimated scf accuracy    <       2.30957957 Ry
     electrostatic embedding   =       0.03381190 Ry
     correction to one-el term =       0.00000000 Ry

     iteration #  2     ecut=    35.00 Ry     beta= 0.20
     Davidson diagonalization with overlap
     ethr =  2.60E-03,  avg # of iterations =  2.0

     negative rho (up, down):  1.332E-04 0.000E+00

     total cpu time spent up to now is        4.3 secs

     total energy              =    -734.89105303 Ry
     estimated scf accuracy    <      17.11345999 Ry
     electrostatic embedding   =       0.03381190 Ry
     correction to one-el term =       0.00000000 Ry

     iteration #  3     ecut=    35.00 Ry     beta= 0.20
     Davidson diagonalization with overlap
     ethr =  2.60E-03,  avg # of iterations =  2.0

     negative rho (up, down):  1.047E-04 0.000E+00

     add environment contribution to local potential

     total cpu time spent up to now is        5.2 secs

     total energy              =    -735.53314749 Ry
     estimated scf accuracy    <       0.51786543 Ry
     electrostatic embedding   =       0.03381190 Ry
     correction to one-el term =       0.00000000 Ry

     iteration #  4     ecut=    35.00 Ry     beta= 0.20
     Davidson diagonalization with overlap
     ethr =  5.82E-04,  avg # of iterations =  9.0

     negative rho (up, down):  1.368E-04 0.000E+00

     add environment contribution to local potential

     total cpu time spent up to now is        6.2 secs

     total energy              =    -735.34043053 Ry
     estimated scf accuracy    <       0.42369192 Ry
     electrostatic embedding   =       0.26936088 Ry
     correction to one-el term =      15.81413361 Ry

     iteration #  5     ecut=    35.00 Ry     beta= 0.20
     Davidson diagonalization with overlap
     ethr =  4.76E-04,  avg # of iterations =  1.0

     negative rho (up, down):  1.327E-04 0.000E+00

     add environment contribution to local potential

     total cpu time spent up to now is        7.1 secs

     total energy              =    -735.31100079 Ry
     estimated scf accuracy    <       0.15046751 Ry
     electrostatic embedding   =       0.25772327 Ry
     correction to one-el term =      14.80142720 Ry

     iteration #  6     ecut=    35.00 Ry     beta= 0.20
     Davidson diagonalization with overlap
     ethr =  1.69E-04,  avg # of iterations =  3.0

     negative rho (up, down):  1.444E-04 0.000E+00

     add environment contribution to local potential

     total cpu time spent up to now is        8.1 secs

     total energy              =    -735.31951073 Ry
     estimated scf accuracy    <       0.02306781 Ry
     electrostatic embedding   =       0.23949071 Ry
     correction to one-el term =      13.20086717 Ry

     iteration #  7     ecut=    35.00 Ry     beta= 0.20
     Davidson diagonalization with overlap
     ethr =  2.59E-05,  avg # of iterations = 10.0

     negative rho (up, down):  1.813E-04 0.000E+00

     add environment contribution to local potential

     total cpu time spent up to now is        9.1 secs

     total energy              =    -735.31853820 Ry
     estimated scf accuracy    <       0.02699134 Ry
     electrostatic embedding   =       0.23324270 Ry
     correction to one-el term =      12.65057673 Ry

     iteration #  8     ecut=    35.00 Ry     beta= 0.20
     Davidson diagonalization with overlap
     ethr =  2.59E-05,  avg # of iterations =  2.0

     negative rho (up, down):  1.767E-04 0.000E+00

     add environment contribution to local potential

     total cpu time spent up to now is       10.1 secs

     total energy              =    -735.31851263 Ry
     estimated scf accuracy    <       0.00617057 Ry
     electrostatic embedding   =       0.22919236 Ry
     correction to one-el term =      12.29194402 Ry

     iteration #  9     ecut=    35.00 Ry     beta= 0.20
     Davidson diagonalization with overlap
     ethr =  6.93E-06,  avg # of iterations =  2.0

     negative rho (up, down):  1.763E-04 0.000E+00

     add environment contribution to local potential

     total cpu time spent up to now is       11.0 secs

     total energy              =    -735.31864049 Ry
     estimated scf accuracy    <       0.00140888 Ry
     electrostatic embedding   =       0.23036237 Ry
     correction to one-el term =      12.39618991 Ry

     iteration # 10     ecut=    35.00 Ry     beta= 0.20
     Davidson diagonalization with overlap
     ethr =  1.58E-06,  avg # of iterations =  7.0

     negative rho (up, down):  1.799E-04 0.000E+00

     add environment contribution to local potential

     total cpu time spent up to now is       12.0 secs

     total energy              =    -735.31883610 Ry
     estimated scf accuracy    <       0.00050921 Ry
     electrostatic embedding   =       0.23119619 Ry
     correction to one-el term =      12.47027091 Ry

     iteration # 11     ecut=    35.00 Ry     beta= 0.20
     Davidson diagonalization with overlap
     ethr =  5.72E-07,  avg # of iterations =  1.0

     negative rho (up, down):  1.761E-04 0.000E+00

     add environment contribution to local potential

     total cpu time spent up to now is       12.9 secs

     total energy              =    -735.31875186 Ry
     estimated scf accuracy    <       0.00070565 Ry
     electrostatic embedding   =       0.23090627 Ry
     correction to one-el term =      12.44491954 Ry

     iteration # 12     ecut=    35.00 Ry     beta= 0.20
     Davidson diagonalization with overlap
     ethr =  5.72E-07,  avg # of iterations =  1.0

     negative rho (up, down):  1.776E-04 0.000E+00

     add environment contribution to local potential

     total cpu time spent up to now is       13.7 secs

     total energy              =    -735.31877949 Ry
     estimated scf accuracy    <       0.00025042 Ry
     electrostatic embedding   =       0.23034041 Ry
     correction to one-el term =      12.39506439 Ry

     iteration # 13     ecut=    35.00 Ry     beta= 0.20
     Davidson diagonalization with overlap
     ethr =  2.81E-07,  avg # of iterations =  1.0

     negative rho (up, down):  1.765E-04 0.000E+00

     add environment contribution to local potential

     total cpu time spent up to now is       14.7 secs

     total energy              =    -735.31878788 Ry
     estimated scf accuracy    <       0.00001598 Ry
     electrostatic embedding   =       0.23021177 Ry
     correction to one-el term =      12.38374531 Ry

     iteration # 14     ecut=    35.00 Ry     beta= 0.20
     Davidson diagonalization with overlap
     ethr =  1.80E-08,  avg # of iterations =  1.0

     negative rho (up, down):  1.767E-04 0.000E+00

     add environment contribution to local potential

     total cpu time spent up to now is       15.6 secs

     total energy              =    -735.31878920 Ry
     estimated scf accuracy    <       0.00001098 Ry
     electrostatic embedding   =       0.23026331 Ry
     correction to one-el term =      12.38830577 Ry

     iteration # 15     ecut=    35.00 Ry     beta= 0.20
     Davidson diagonalization with overlap
     ethr =  1.23E-08,  avg # of iterations =  1.0

     negative rho (up, down):  1.769E-04 0.000E+00

     add environment contribution to local potential

     total cpu time spent up to now is       16.4 secs

     total energy              =    -735.31878967 Ry
     estimated scf accuracy    <       0.00000197 Ry
     electrostatic embedding   =       0.23024244 Ry
     correction to one-el term =      12.38649872 Ry

     iteration # 16     ecut=    35.00 Ry     beta= 0.20
     Davidson diagonalization with overlap
     ethr =  2.21E-09,  avg # of iterations =  2.0

     negative rho (up, down):  1.768E-04 0.000E+00

     add environment contribution to local potential

     total cpu time spent up to now is       17.3 secs

     total energy              =    -735.31878978 Ry
     estimated scf accuracy    <       0.00000028 Ry
     electrostatic embedding   =       0.23026626 Ry
     correction to one-el term =      12.38860342 Ry

     iteration # 17     ecut=    35.00 Ry     beta= 0.20
     Davidson diagonalization with overlap
     ethr =  3.16E-10,  avg # of iterations =  1.0

     negative rho (up, down):  1.768E-04 0.000E+00

     add environment contribution to local potential

     total cpu time spent up to now is       18.2 secs

     total energy              =    -735.31878980 Ry
     estimated scf accuracy    <       0.00000016 Ry
     electrostatic embedding   =       0.23026549 Ry
     correction to one-el term =      12.38853299 Ry

     iteration # 18     ecut=    35.00 Ry     beta= 0.20
     Davidson diagonalization with overlap
     ethr =  1.82E-10,  avg # of iterations =  1.0

     negative rho (up, down):  1.770E-04 0.000E+00

     add environment contribution to local potential

     total cpu time spent up to now is       19.2 secs

     total energy              =    -735.31878981 Ry
     estimated scf accuracy    <       0.00000005 Ry
     electrostatic embedding   =       0.23026438 Ry
     correction to one-el term =      12.38843439 Ry

     iteration # 19     ecut=    35.00 Ry     beta= 0.20
     Davidson diagonalization with overlap
     ethr =  5.11E-11,  avg # of iterations =  1.0

     negative rho (up, down):  1.772E-04 0.000E+00

     add environment contribution to local potential

     total cpu time spent up to now is       20.2 secs

     total energy              =    -735.31878981 Ry
     estimated scf accuracy    <       0.00000005 Ry
     electrostatic embedding   =       0.23025998 Ry
     correction to one-el term =      12.38804341 Ry

     iteration # 20     ecut=    35.00 Ry     beta= 0.20
     Davidson diagonalization with overlap
     ethr =  5.11E-11,  avg # of iterations =  1.0

     negative rho (up, down):  1.782E-04 0.000E+00

     the potential shift due to the Gaussian-smeared nuclei is    -0.4600 ev

     total cpu time spent up to now is       21.0 secs

     End of self-consistent calculation

          k = 0.0000 0.0000 0.0000 ( 14571 PWs)   bands (ev):

   -29.0472 -16.0141 -14.6764 -13.3400 -12.6293 -12.5222 -12.2193 -12.1834
   -12.0346 -11.3971 -11.3878 -11.1572 -11.0753 -11.0624 -10.9529 -10.8330
   -10.1051 -10.0581  -9.9928  -9.8548  -9.8048  -9.7903  -9.7387  -9.7114
    -9.6948  -9.5063  -9.4802  -9.3374  -9.2259  -9.0104  -8.9435  -8.1283
    -8.0393  -7.8086  -7.5519  -7.5028  -7.4413  -7.2832  -7.1128  -7.0164
    -6.8437  -6.8341  -6.6181  -6.6160  -6.5805  -6.4175  -6.2442  -5.0883
    -4.8498  -4.8180  -4.1026  -3.5370  -3.1856  -2.0089  -1.8634  -1.7156
    -0.6942  -0.2593   0.7644   1.0764   1.1990   1.7782   2.1853   2.4530
     2.4839   3.2885   4.1503   4.8897   5.0012   5.1752   5.4182   5.6783
     5.9949   6.0767   6.5357   6.9515   7.0514   7.3140   7.6961   7.7514

     occupation numbers 
     1.0000   1.0000   1.0000   1.0000   1.0000   1.0000   1.0000   1.0000
     1.0000   1.0000   1.0000   1.0000   1.0000   1.0000   1.0000   1.0000
     1.0000   1.0000   1.0000   1.0000   1.0000   1.0000   1.0000   1.0000
     1.0000   1.0000   1.0000   1.0000   1.0000   1.0000   1.0000   1.0000
     1.0000   1.0004   1.0067   1.0101   1.0164   1.0439   1.0793   1.0808
     0.9891   0.9794   0.6507   0.6467   0.5814   0.3033   0.1118   0.0000
     0.0000   0.0000   0.0000   0.0000   0.0000   0.0000   0.0000   0.0000
     0.0000   0.0000   0.0000   0.0000   0.0000   0.0000   0.0000   0.0000
     0.0000   0.0000   0.0000   0.0000   0.0000   0.0000   0.0000   0.0000
     0.0000   0.0000   0.0000   0.0000   0.0000   0.0000   0.0000   0.0000

     the Fermi energy is    -6.4792 ev

!    total energy              =    -735.31878981 Ry
     estimated scf accuracy    <          4.0E-09 Ry
     smearing contrib. (-TS)   =      -0.00037594 Ry
     internal energy E=F+TS    =    -735.31841387 Ry

     The total energy is F=E-TS. E is the sum of the following terms:
     one-electron contribution =   -3948.25478681 Ry
     hartree contribution      =    2005.74783181 Ry
     xc contribution           =    -378.63394858 Ry
     ewald contribution        =    1573.20467954 Ry
     electrostatic embedding   =       0.23025445 Ry
     correction to one-el term =      12.38755571 Ry

     WARNING: you are using the parabolic pbc correction;
              the potential shift above must be added to 
              band and Fermi energies.

     convergence has been achieved in  20 iterations

     negative rho (up, down):  1.782E-04 0.000E+00
     The global environment contribution to forces
     atom    1 type  1   force =     0.00000000    0.00000000    0.12402091
     atom    2 type  2   force =     0.00000000    0.00000000    0.26461290
     atom    3 type  3   force =     0.00000000    0.00000000    0.07508888
     atom    4 type  3   force =     0.00000000    0.00000000    0.07508874
     atom    5 type  3   force =     0.00000000    0.00000000    0.07368315
     atom    6 type  3   force =     0.00000000    0.00000000    0.09841480
     atom    7 type  3   force =     0.00000000    0.00000000   -0.18864494
     atom    8 type  3   force =     0.00000000    0.00000000   -0.17969679
     atom    9 type  3   force =     0.00000000    0.00000000   -0.18360857
     atom   10 type  3   force =     0.00000000    0.00000000   -0.18360840
 

     Forces acting on atoms (cartesian axes, Ry/au):

     atom    1 type  1   force =    -0.00000597   -0.00412706    0.12262772
     atom    2 type  2   force =     0.00010002    0.00152735   -0.06327741
     atom    3 type  3   force =    -0.00085511    0.01330049    0.03624488
     atom    4 type  3   force =     0.00191003    0.01359464    0.03691979
     atom    5 type  3   force =    -0.00183769    0.01272029    0.00147843
     atom    6 type  3   force =     0.00075383    0.00796968    0.03101607
     atom    7 type  3   force =    -0.00158849   -0.01416871   -0.04728632
     atom    8 type  3   force =     0.00045925   -0.01790455   -0.02825849
     atom    9 type  3   force =     0.01621600   -0.00664256   -0.04496901
     atom   10 type  3   force =    -0.01515186   -0.00626958   -0.04449567
     The non-local contrib.  to forces
     atom    1 type  1   force =    -0.00007581   -0.00617064    0.51248596
     atom    2 type  2   force =     0.00024240    0.04107682   -3.25335441
     atom    3 type  3   force =    -0.02646523   -0.00138140   -0.10315705
     atom    4 type  3   force =     0.02659325   -0.00121589   -0.10358600
     atom    5 type  3   force =     0.00096835    0.00390143   -0.15509800
     atom    6 type  3   force =    -0.00082222   -0.01655289    0.48094020
     atom    7 type  3   force =     0.00059684    0.02312679    0.07601989
     atom    8 type  3   force =    -0.00091374   -0.01739500    0.10097065
     atom    9 type  3   force =     0.01722046   -0.00295588    0.06287184
     atom   10 type  3   force =    -0.01711171   -0.00262682    0.06172297
     The ionic contribution  to forces
     atom    1 type  1   force =     0.00636806    0.05296760   19.96835427
     atom    2 type  2   force =     0.00226724   -0.13041391   48.33963012
     atom    3 type  3   force =     0.50324609   -0.09020628   30.03736972
     atom    4 type  3   force =    -0.49292694   -0.08303178   30.06216876
     atom    5 type  3   force =    -0.07802400    0.12039865   29.68099553
     atom    6 type  3   force =     0.05586768    0.10046245   29.12582959
     atom    7 type  3   force =    -0.06942211   -0.08855591  -48.10896481
     atom    8 type  3   force =     0.05843526    0.13450123  -45.70999247
     atom    9 type  3   force =     0.08482129   -0.01166389  -46.71013044
     atom   10 type  3   force =    -0.07063256   -0.00445817  -46.68526027
     The local contribution  to forces
     atom    1 type  1   force =    -0.00630379   -0.05091005  -20.48210954
     atom    2 type  2   force =    -0.00241557    0.09088257  -45.41407195
     atom    3 type  3   force =    -0.48024211    0.10834304  -29.96524391
     atom    4 type  3   force =     0.47102736    0.10122239  -29.98907824
     atom    5 type  3   force =     0.07477045   -0.10786803  -29.59491228
     atom    6 type  3   force =    -0.05402263   -0.07212225  -29.74414341
     atom    7 type  3   force =     0.06674398    0.04334596   48.15898069
     atom    8 type  3   force =    -0.05670020   -0.13067251   45.74297402
     atom    9 type  3   force =    -0.09289859    0.00375634   46.76863106
     atom   10 type  3   force =     0.07985116   -0.00343694   46.74524926
     The core correction contribution to forces
     atom    1 type  1   force =     0.00000000    0.00000000    0.00000000
     atom    2 type  2   force =     0.00000000    0.00000000    0.00000000
     atom    3 type  3   force =     0.00260818   -0.00343994   -0.00771715
     atom    4 type  3   force =    -0.00279928   -0.00336671   -0.00757291
     atom    5 type  3   force =     0.00043355   -0.00369719   -0.00310040
     atom    6 type  3   force =    -0.00026838   -0.00381031    0.07006078
     atom    7 type  3   force =     0.00047487    0.00793943    0.01544369
     atom    8 type  3   force =    -0.00035734   -0.00432001    0.01763334
     atom    9 type  3   force =     0.00707016    0.00422734    0.01739905
     atom   10 type  3   force =    -0.00726799    0.00425850    0.01752986
     The Hubbard contrib.    to forces
     atom    1 type  1   force =     0.00000000    0.00000000    0.00000000
     atom    2 type  2   force =     0.00000000    0.00000000    0.00000000
     atom    3 type  3   force =     0.00000000    0.00000000    0.00000000
     atom    4 type  3   force =     0.00000000    0.00000000    0.00000000
     atom    5 type  3   force =     0.00000000    0.00000000    0.00000000
     atom    6 type  3   force =     0.00000000    0.00000000    0.00000000
     atom    7 type  3   force =     0.00000000    0.00000000    0.00000000
     atom    8 type  3   force =     0.00000000    0.00000000    0.00000000
     atom    9 type  3   force =     0.00000000    0.00000000    0.00000000
     atom   10 type  3   force =     0.00000000    0.00000000    0.00000000
     The SCF correction term to forces
     atom    1 type  1   force =    -0.00000085   -0.00000063    0.00000309
     atom    2 type  2   force =    -0.00000049   -0.00000480    0.00003288
     atom    3 type  3   force =    -0.00000848   -0.00000159    0.00003135
     atom    4 type  3   force =     0.00000921   -0.00000002    0.00002639
     atom    5 type  3   force =     0.00000754   -0.00000124    0.00003739
     atom    6 type  3   force =    -0.00000705    0.00000602    0.00004108
     atom    7 type  3   force =     0.00001150   -0.00001165    0.00000612
     atom    8 type  3   force =    -0.00001115   -0.00000492   -0.00002028
     atom    9 type  3   force =    -0.00000375    0.00000686   -0.00000498
     atom   10 type  3   force =     0.00000282    0.00000718   -0.00000214

     Total force =     0.177296     Total SCF correction =     0.000085

     Writing output data file /p/project/pra121/vijay1/projects/misc_project/test_aiida_qe/PtCO_vacuum.save/
 
     init_run     :      1.88s CPU      2.01s WALL (       1 calls)
     electrons    :     16.77s CPU     18.93s WALL (       1 calls)
     forces       :      1.20s CPU      1.26s WALL (       1 calls)

     Called by init_run:
     wfcinit      :      0.12s CPU      0.13s WALL (       1 calls)
     wfcinit:atom :      0.00s CPU      0.00s WALL (       1 calls)
     wfcinit:wfcr :      0.12s CPU      0.13s WALL (       1 calls)
     potinit      :      0.59s CPU      0.62s WALL (       1 calls)
     hinit0       :      0.96s CPU      0.98s WALL (       1 calls)

     Called by electrons:
     c_bands      :      5.81s CPU      6.05s WALL (      20 calls)
     sum_band     :      5.37s CPU      6.21s WALL (      20 calls)
     v_of_rho     :      1.44s CPU      1.59s WALL (      21 calls)
     v_h          :      0.25s CPU      0.25s WALL (      55 calls)
     v_xc         :      1.39s CPU      1.54s WALL (      22 calls)
     newd         :      3.48s CPU      4.39s WALL (      21 calls)
     mix_rho      :      0.26s CPU      0.28s WALL (      20 calls)

     Called by c_bands:
     init_us_2    :      0.07s CPU      0.07s WALL (      41 calls)
     cegterg      :      5.48s CPU      5.71s WALL (      20 calls)

     Called by sum_band:
     sum_band:wei :      0.00s CPU      0.00s WALL (      20 calls)
     sum_band:loo :      0.96s CPU      0.98s WALL (      20 calls)
     sum_band:buf :      0.00s CPU      0.00s WALL (      20 calls)
     sum_band:ini :      0.03s CPU      0.03s WALL (      20 calls)
     sum_band:cal :      0.09s CPU      0.09s WALL (      20 calls)
     sum_band:bec :      0.00s CPU      0.00s WALL (      20 calls)
     addusdens    :      4.26s CPU      5.08s WALL (      20 calls)
     addusd:skk   :      0.05s CPU      0.05s WALL (      60 calls)
     addusd:dgemm :      0.98s CPU      1.75s WALL (      60 calls)
     addusd:qvan2 :      2.95s CPU      2.97s WALL (      60 calls)

     Called by *egterg:
     cdiaghg      :      0.33s CPU      0.35s WALL (      77 calls)
     cegterg:over :      0.32s CPU      0.32s WALL (      57 calls)
     cegterg:upda :      0.29s CPU      0.31s WALL (      57 calls)
     cegterg:last :      0.40s CPU      0.42s WALL (      32 calls)
     cdiaghg:chol :      0.02s CPU      0.02s WALL (      77 calls)
     cdiaghg:inve :      0.00s CPU      0.00s WALL (      77 calls)
     cdiaghg:para :      0.04s CPU      0.04s WALL (     154 calls)
     h_psi        :      3.82s CPU      3.95s WALL (      78 calls)
     s_psi        :      0.22s CPU      0.23s WALL (      78 calls)
     g_psi        :      0.02s CPU      0.02s WALL (      57 calls)

     Called by h_psi:
     h_psi:calbec :      0.21s CPU      0.22s WALL (      78 calls)
     vloc_psi     :      3.34s CPU      3.42s WALL (      78 calls)
     add_vuspsi   :      0.24s CPU      0.25s WALL (      78 calls)

     General routines
     calbec       :      0.31s CPU      0.32s WALL (     102 calls)
     fft          :      1.15s CPU      1.20s WALL (     351 calls)
     ffts         :      0.04s CPU      0.04s WALL (      41 calls)
     fftw         :      3.57s CPU      3.64s WALL (    8678 calls)
     interpolate  :      0.10s CPU      0.11s WALL (      21 calls)
 
     Parallel routines
     fft_scatt_xy :      0.74s CPU      0.76s WALL (    9070 calls)
     fft_scatt_yz :      1.29s CPU      1.32s WALL (    9070 calls)
 
     Environ routines
     calc_eelect  :      0.01s CPU      0.01s WALL (      40 calls)
     calc_velect  :      0.43s CPU      0.43s WALL (      34 calls)
     calc_felect  :      0.02s CPU      0.02s WALL (       1 calls)
 
     PWSCF        :     19.94s CPU     22.41s WALL

 
   This run was terminated on:  13:56: 8  19Nov2021            

=------------------------------------------------------------------------------=
   JOB DONE.
=------------------------------------------------------------------------------=
