
     Program PROJWFC v.6.6 starts on  3Oct2021 at 13:48:19 

     This program is part of the open-source Quantum ESPRESSO suite
     for quantum simulation of materials; please cite
         "P. Giannozzi et al., J. Phys.:Condens. Matter 21 395502 (2009);
         "P. Giannozzi et al., J. Phys.:Condens. Matter 29 465901 (2017);
          URL http://www.quantum-espresso.org", 
     in publications or presentations arising from this work. More details at
     http://www.quantum-espresso.org/quote

     Parallel version (MPI), running on     1 processors

     MPI processes distributed on     1 nodes
     Fft bands division:     nmany     =       1

     Reading xml data from directory:

     ./out/aiida.save/
     file Fe.pbe-spn-kjpaw_psl.0.2.1.UPF: wavefunction(s)  3D renormalized

     IMPORTANT: XC functional enforced from input :
     Exchange-correlation= PBE
                           (   1   4   3   4   0   0   0)
     Any further DFT definition will be discarded
     Please, verify this is what you really want


     G-vector sticks info
     --------------------
     sticks:   dense  smooth     PW     G-vecs:    dense   smooth      PW
     Sum        2453     829    233                91965    17773    2601


     Check: negative core charge=   -0.000010

     Linear tetrahedron method (read from file) 
     [opt_tetra]  Linear tetrahedron method is used.

     Calling projwave .... 

  Problem Sizes 
  natomwfc =           26
  nbnd     =           24
  nkstot   =            4
  npwx     =         2240
  nkb      =           36


     Atomic states used for projection
     (read from pseudopotential files):

     state #   1: atom   1 (Fe ), wfc  1 (l=0 m= 1)
     state #   2: atom   1 (Fe ), wfc  2 (l=0 m= 1)
     state #   3: atom   1 (Fe ), wfc  3 (l=1 m= 1)
     state #   4: atom   1 (Fe ), wfc  3 (l=1 m= 2)
     state #   5: atom   1 (Fe ), wfc  3 (l=1 m= 3)
     state #   6: atom   1 (Fe ), wfc  4 (l=1 m= 1)
     state #   7: atom   1 (Fe ), wfc  4 (l=1 m= 2)
     state #   8: atom   1 (Fe ), wfc  4 (l=1 m= 3)
     state #   9: atom   1 (Fe ), wfc  5 (l=2 m= 1)
     state #  10: atom   1 (Fe ), wfc  5 (l=2 m= 2)
     state #  11: atom   1 (Fe ), wfc  5 (l=2 m= 3)
     state #  12: atom   1 (Fe ), wfc  5 (l=2 m= 4)
     state #  13: atom   1 (Fe ), wfc  5 (l=2 m= 5)
     state #  14: atom   2 (Fe ), wfc  1 (l=0 m= 1)
     state #  15: atom   2 (Fe ), wfc  2 (l=0 m= 1)
     state #  16: atom   2 (Fe ), wfc  3 (l=1 m= 1)
     state #  17: atom   2 (Fe ), wfc  3 (l=1 m= 2)
     state #  18: atom   2 (Fe ), wfc  3 (l=1 m= 3)
     state #  19: atom   2 (Fe ), wfc  4 (l=1 m= 1)
     state #  20: atom   2 (Fe ), wfc  4 (l=1 m= 2)
     state #  21: atom   2 (Fe ), wfc  4 (l=1 m= 3)
     state #  22: atom   2 (Fe ), wfc  5 (l=2 m= 1)
     state #  23: atom   2 (Fe ), wfc  5 (l=2 m= 2)
     state #  24: atom   2 (Fe ), wfc  5 (l=2 m= 3)
     state #  25: atom   2 (Fe ), wfc  5 (l=2 m= 4)
     state #  26: atom   2 (Fe ), wfc  5 (l=2 m= 5)

 k =   0.0000000000  0.0000000000  0.0000000000
==== e(   1) =   -70.06225 eV ==== 
     psi = 0.452*[#  14]+0.452*[#   1]+0.048*[#   2]+0.048*[#  15]
    |psi|^2 = 1.000
==== e(   2) =   -69.92434 eV ==== 
     psi = 0.466*[#   1]+0.466*[#  14]+0.034*[#   2]+0.034*[#  15]
    |psi|^2 = 1.000
==== e(   3) =   -36.16307 eV ==== 
     psi = 0.386*[#  18]+0.386*[#   5]+0.114*[#   4]+0.114*[#  17]
    |psi|^2 = 1.000
==== e(   4) =   -36.16307 eV ==== 
     psi = 0.386*[#  17]+0.386*[#   4]+0.113*[#   5]+0.114*[#  18]
    |psi|^2 = 1.000
==== e(   5) =   -36.16307 eV ==== 
     psi = 0.500*[#  16]+0.499*[#   3]
    |psi|^2 = 1.000
==== e(   6) =   -35.86276 eV ==== 
     psi = 0.425*[#   4]+0.425*[#  17]+0.064*[#   5]+0.064*[#  18]+0.010*[#   7]
          +0.010*[#  20]+0.002*[#   8]+0.002*[#  21]
    |psi|^2 = 1.000
==== e(   7) =   -35.86276 eV ==== 
     psi = 0.425*[#   5]+0.425*[#  18]+0.064*[#   4]+0.064*[#  17]+0.010*[#   8]
          +0.010*[#  21]+0.002*[#   7]+0.002*[#  20]
    |psi|^2 = 1.000
==== e(   8) =   -35.86276 eV ==== 
     psi = 0.489*[#   3]+0.488*[#  16]+0.012*[#   6]+0.012*[#  19]
    |psi|^2 = 1.000
==== e(   9) =     9.19109 eV ==== 
     psi = 0.451*[#   2]+0.451*[#  15]+0.048*[#   1]+0.048*[#  14]
    |psi|^2 = 0.998
==== e(  10) =    13.14825 eV ==== 
     psi = 0.496*[#   9]+0.496*[#  22]
    |psi|^2 = 0.992
==== e(  11) =    13.14825 eV ==== 
     psi = 0.496*[#  12]+0.496*[#  25]
    |psi|^2 = 0.992
==== e(  12) =    15.57374 eV ==== 
     psi = 0.500*[#  13]+0.500*[#  26]
    |psi|^2 = 0.999
==== e(  13) =    15.57374 eV ==== 
     psi = 0.499*[#  11]+0.499*[#  24]
    |psi|^2 = 0.999
==== e(  14) =    15.57374 eV ==== 
     psi = 0.499*[#  10]+0.499*[#  23]
    |psi|^2 = 0.999
==== e(  15) =    17.07482 eV ==== 
     psi = 0.500*[#   9]+0.500*[#  22]
    |psi|^2 = 1.000
==== e(  16) =    17.07482 eV ==== 
     psi = 0.500*[#  12]+0.500*[#  25]
    |psi|^2 = 1.000
==== e(  17) =    18.04326 eV ==== 
     psi = 0.500*[#  13]+0.500*[#  26]
    |psi|^2 = 1.000
==== e(  18) =    18.04326 eV ==== 
     psi = 0.388*[#  11]+0.388*[#  24]+0.112*[#  10]+0.112*[#  23]
    |psi|^2 = 1.000
==== e(  19) =    18.04326 eV ==== 
     psi = 0.388*[#  10]+0.388*[#  23]+0.112*[#  11]+0.112*[#  24]
    |psi|^2 = 1.000
==== e(  20) =    27.54501 eV ==== 
     psi = 0.310*[#   8]+0.310*[#  21]+0.186*[#   7]+0.186*[#  20]
    |psi|^2 = 0.994
==== e(  21) =    27.54501 eV ==== 
     psi = 0.308*[#   7]+0.308*[#  20]+0.187*[#   8]+0.187*[#  21]+0.001*[#   6]
          +0.001*[#  19]
    |psi|^2 = 0.994
==== e(  22) =    27.54501 eV ==== 
     psi = 0.495*[#   6]+0.495*[#  19]+0.002*[#   7]+0.002*[#  20]
    |psi|^2 = 0.994
==== e(  23) =    33.42243 eV ==== 
     psi = 0.004*[#   9]+0.004*[#  22]
    |psi|^2 = 0.008
==== e(  24) =    33.42243 eV ==== 
     psi = 0.004*[#  12]+0.004*[#  25]
    |psi|^2 = 0.008

 k =  -0.5000000000  0.0000000000  0.0000000000
==== e(   1) =   -69.98823 eV ==== 
     psi = 0.859*[#  14]+0.120*[#   7]+0.020*[#  15]
    |psi|^2 = 1.000
==== e(   2) =   -69.98815 eV ==== 
     psi = 0.859*[#   1]+0.120*[#  20]+0.020*[#   2]
    |psi|^2 = 1.000
==== e(   3) =   -36.07888 eV ==== 
     psi = 0.966*[#  17]+0.019*[#   2]+0.014*[#  20]
    |psi|^2 = 1.000
==== e(   4) =   -36.07880 eV ==== 
     psi = 0.966*[#   4]+0.019*[#  15]+0.014*[#   7]
    |psi|^2 = 1.000
==== e(   5) =   -36.00865 eV ==== 
     psi = 0.985*[#  18]+0.013*[#  21]+0.002*[#  13]
    |psi|^2 = 1.000
==== e(   6) =   -36.00865 eV ==== 
     psi = 0.985*[#  16]+0.013*[#  19]+0.002*[#  10]
    |psi|^2 = 1.000
==== e(   7) =   -36.00857 eV ==== 
     psi = 0.985*[#   5]+0.013*[#   8]+0.002*[#  26]
    |psi|^2 = 1.000
==== e(   8) =   -36.00857 eV ==== 
     psi = 0.985*[#   3]+0.013*[#   6]+0.002*[#  23]
    |psi|^2 = 1.000
==== e(   9) =    13.09521 eV ==== 
     psi = 0.475*[#   7]+0.212*[#  25]+0.173*[#  15]+0.071*[#  22]+0.041*[#  14]
          +0.025*[#   4]
    |psi|^2 = 0.997
==== e(  10) =    13.09523 eV ==== 
     psi = 0.475*[#  20]+0.212*[#  12]+0.173*[#   2]+0.071*[#   9]+0.041*[#   1]
          +0.025*[#  17]
    |psi|^2 = 0.997
==== e(  11) =    15.07781 eV ==== 
     psi = 0.746*[#  22]+0.249*[#  25]
    |psi|^2 = 0.994
==== e(  12) =    15.07786 eV ==== 
     psi = 0.746*[#   9]+0.249*[#  12]
    |psi|^2 = 0.994
==== e(  13) =    16.01292 eV ==== 
     psi = 0.982*[#  26]+0.016*[#   8]
    |psi|^2 = 0.998
==== e(  14) =    16.01292 eV ==== 
     psi = 0.982*[#  23]+0.016*[#   6]
    |psi|^2 = 0.998
==== e(  15) =    16.01298 eV ==== 
     psi = 0.982*[#  13]+0.016*[#  21]
    |psi|^2 = 0.998
==== e(  16) =    16.01298 eV ==== 
     psi = 0.982*[#  10]+0.016*[#  19]
    |psi|^2 = 0.998
==== e(  17) =    16.78083 eV ==== 
     psi = 1.000*[#  24]
    |psi|^2 = 1.000
==== e(  18) =    16.78090 eV ==== 
     psi = 1.000*[#  11]
    |psi|^2 = 1.000
==== e(  19) =    18.25750 eV ==== 
     psi = 0.537*[#  25]+0.185*[#   7]+0.179*[#  22]+0.080*[#  15]+0.012*[#  14]
          +0.005*[#   4]
    |psi|^2 = 0.998
==== e(  20) =    18.25756 eV ==== 
     psi = 0.537*[#  12]+0.185*[#  20]+0.179*[#   9]+0.080*[#   2]+0.012*[#   1]
          +0.005*[#  17]
    |psi|^2 = 0.998
==== e(  21) =    34.73523 eV ==== 
     psi = 0.691*[#   8]+0.015*[#  26]+0.010*[#   5]
    |psi|^2 = 0.716
==== e(  22) =    34.73523 eV ==== 
     psi = 0.691*[#   6]+0.015*[#  23]+0.010*[#   3]
    |psi|^2 = 0.716
==== e(  23) =    34.73523 eV ==== 
     psi = 0.691*[#  21]+0.015*[#  13]+0.010*[#  18]
    |psi|^2 = 0.716
==== e(  24) =    34.73523 eV ==== 
     psi = 0.691*[#  19]+0.015*[#  10]+0.010*[#  16]
    |psi|^2 = 0.716

 k =   0.0000000000  0.0000000000  0.0000000000
==== e(   1) =   -66.37261 eV ==== 
     psi = 0.451*[#  14]+0.450*[#   1]+0.050*[#   2]+0.049*[#  15]
    |psi|^2 = 1.000
==== e(   2) =   -66.22254 eV ==== 
     psi = 0.467*[#   1]+0.467*[#  14]+0.033*[#   2]+0.033*[#  15]
    |psi|^2 = 1.000
==== e(   3) =   -32.56741 eV ==== 
     psi = 0.474*[#  16]+0.474*[#   3]+0.013*[#   4]+0.013*[#  17]+0.013*[#   5]
          +0.013*[#  18]
    |psi|^2 = 1.000
==== e(   4) =   -32.56741 eV ==== 
     psi = 0.360*[#  18]+0.359*[#   5]+0.139*[#   4]+0.139*[#  17]+0.002*[#   3]
          +0.002*[#  16]
    |psi|^2 = 1.000
==== e(   5) =   -32.56741 eV ==== 
     psi = 0.348*[#  17]+0.348*[#   4]+0.128*[#   5]+0.128*[#  18]+0.024*[#   3]
          +0.024*[#  16]
    |psi|^2 = 1.000
==== e(   6) =   -32.23822 eV ==== 
     psi = 0.474*[#   3]+0.474*[#  16]+0.013*[#   5]+0.013*[#  18]+0.010*[#   6]
          +0.010*[#  19]+0.003*[#   4]+0.003*[#  17]
    |psi|^2 = 1.000
==== e(   7) =   -32.23822 eV ==== 
     psi = 0.314*[#   4]+0.314*[#  17]+0.174*[#   5]+0.174*[#  18]+0.007*[#   7]
          +0.007*[#  20]+0.004*[#   8]+0.004*[#  21]+0.001*[#   3]+0.001*[#  16]
          
    |psi|^2 = 1.000
==== e(   8) =   -32.23822 eV ==== 
     psi = 0.302*[#   5]+0.302*[#  18]+0.173*[#   4]+0.173*[#  17]+0.014*[#   3]
          +0.014*[#  16]+0.007*[#   8]+0.007*[#  21]+0.004*[#   7]+0.004*[#  20]
          
    |psi|^2 = 1.000
==== e(   9) =    10.48667 eV ==== 
     psi = 0.450*[#   2]+0.450*[#  15]+0.049*[#   1]+0.049*[#  14]
    |psi|^2 = 0.999
==== e(  10) =    15.71574 eV ==== 
     psi = 0.488*[#   9]+0.488*[#  22]
    |psi|^2 = 0.975
==== e(  11) =    15.71574 eV ==== 
     psi = 0.488*[#  12]+0.488*[#  25]
    |psi|^2 = 0.975
==== e(  12) =    18.70184 eV ==== 
     psi = 0.499*[#  13]+0.499*[#  26]
    |psi|^2 = 0.997
==== e(  13) =    18.70184 eV ==== 
     psi = 0.494*[#  11]+0.494*[#  24]+0.005*[#  10]+0.005*[#  23]
    |psi|^2 = 0.997
==== e(  14) =    18.70184 eV ==== 
     psi = 0.494*[#  10]+0.494*[#  23]+0.005*[#  11]+0.005*[#  24]
    |psi|^2 = 0.997
==== e(  15) =    20.48398 eV ==== 
     psi = 0.499*[#   9]+0.499*[#  22]
    |psi|^2 = 0.998
==== e(  16) =    20.48398 eV ==== 
     psi = 0.499*[#  12]+0.499*[#  25]
    |psi|^2 = 0.998
==== e(  17) =    21.46774 eV ==== 
     psi = 0.500*[#  13]+0.500*[#  26]
    |psi|^2 = 1.000
==== e(  18) =    21.46774 eV ==== 
     psi = 0.254*[#  11]+0.254*[#  24]+0.246*[#  10]+0.246*[#  23]
    |psi|^2 = 1.000
==== e(  19) =    21.46774 eV ==== 
     psi = 0.254*[#  10]+0.254*[#  23]+0.246*[#  11]+0.246*[#  24]
    |psi|^2 = 1.000
==== e(  20) =    29.04469 eV ==== 
     psi = 0.484*[#   6]+0.484*[#  19]+0.008*[#   8]+0.008*[#  21]+0.005*[#   7]
          +0.005*[#  20]
    |psi|^2 = 0.994
==== e(  21) =    29.04469 eV ==== 
     psi = 0.355*[#   7]+0.355*[#  20]+0.141*[#   8]+0.141*[#  21]+0.001*[#   6]
          +0.001*[#  19]
    |psi|^2 = 0.994
==== e(  22) =    29.04469 eV ==== 
     psi = 0.348*[#   8]+0.348*[#  21]+0.137*[#   7]+0.137*[#  20]+0.012*[#   6]
          +0.012*[#  19]
    |psi|^2 = 0.994
==== e(  23) =    35.55823 eV ==== 
     psi = 0.012*[#   9]+0.012*[#  22]
    |psi|^2 = 0.025
==== e(  24) =    35.55823 eV ==== 
     psi = 0.012*[#  12]+0.012*[#  25]
    |psi|^2 = 0.025

 k =  -0.5000000000  0.0000000000  0.0000000000
==== e(   1) =   -66.29188 eV ==== 
     psi = 0.859*[#  14]+0.122*[#   7]+0.019*[#  15]
    |psi|^2 = 1.000
==== e(   2) =   -66.29180 eV ==== 
     psi = 0.859*[#   1]+0.122*[#  20]+0.019*[#   2]
    |psi|^2 = 1.000
==== e(   3) =   -32.47931 eV ==== 
     psi = 0.964*[#  17]+0.019*[#   2]+0.016*[#  20]
    |psi|^2 = 1.000
==== e(   4) =   -32.47924 eV ==== 
     psi = 0.964*[#   4]+0.019*[#  15]+0.016*[#   7]
    |psi|^2 = 1.000
==== e(   5) =   -32.39785 eV ==== 
     psi = 0.986*[#  16]+0.011*[#  19]+0.002*[#  10]
    |psi|^2 = 1.000
==== e(   6) =   -32.39785 eV ==== 
     psi = 0.986*[#  18]+0.011*[#  21]+0.002*[#  13]
    |psi|^2 = 1.000
==== e(   7) =   -32.39777 eV ==== 
     psi = 0.986*[#   3]+0.011*[#   6]+0.002*[#  23]
    |psi|^2 = 1.000
==== e(   8) =   -32.39777 eV ==== 
     psi = 0.986*[#   5]+0.011*[#   8]+0.002*[#  26]
    |psi|^2 = 1.000
==== e(   9) =    14.69595 eV ==== 
     psi = 0.546*[#   7]+0.194*[#  15]+0.133*[#  25]+0.048*[#  14]+0.044*[#  22]
          +0.030*[#   4]
    |psi|^2 = 0.996
==== e(  10) =    14.69596 eV ==== 
     psi = 0.546*[#  20]+0.194*[#   2]+0.133*[#  12]+0.048*[#   1]+0.044*[#   9]
          +0.030*[#  17]
    |psi|^2 = 0.996
==== e(  11) =    18.00096 eV ==== 
     psi = 0.735*[#  22]+0.245*[#  25]
    |psi|^2 = 0.980
==== e(  12) =    18.00102 eV ==== 
     psi = 0.735*[#   9]+0.245*[#  12]
    |psi|^2 = 0.980
==== e(  13) =    19.07178 eV ==== 
     psi = 0.969*[#  26]+0.025*[#   8]
    |psi|^2 = 0.995
==== e(  14) =    19.07178 eV ==== 
     psi = 0.969*[#  23]+0.025*[#   6]
    |psi|^2 = 0.995
==== e(  15) =    19.07183 eV ==== 
     psi = 0.969*[#  13]+0.025*[#  21]
    |psi|^2 = 0.995
==== e(  16) =    19.07183 eV ==== 
     psi = 0.969*[#  10]+0.025*[#  19]
    |psi|^2 = 0.995
==== e(  17) =    20.04547 eV ==== 
     psi = 0.998*[#  24]
    |psi|^2 = 0.998
==== e(  18) =    20.04553 eV ==== 
     psi = 0.998*[#  11]
    |psi|^2 = 0.998
==== e(  19) =    21.42435 eV ==== 
     psi = 0.615*[#  25]+0.205*[#  22]+0.115*[#   7]+0.055*[#  15]+0.007*[#  14]
          +0.003*[#   4]
    |psi|^2 = 0.999
==== e(  20) =    21.42441 eV ==== 
     psi = 0.615*[#  12]+0.205*[#   9]+0.115*[#  20]+0.055*[#   2]+0.007*[#   1]
          +0.003*[#  17]
    |psi|^2 = 0.999
==== e(  21) =    36.61989 eV ==== 
     psi = 0.670*[#   8]+0.028*[#  26]+0.009*[#   5]
    |psi|^2 = 0.708
==== e(  22) =    36.61989 eV ==== 
     psi = 0.670*[#   6]+0.028*[#  23]+0.009*[#   3]
    |psi|^2 = 0.708
==== e(  23) =    36.61989 eV ==== 
     psi = 0.670*[#  21]+0.028*[#  13]+0.009*[#  18]
    |psi|^2 = 0.708
==== e(  24) =    36.61989 eV ==== 
     psi = 0.670*[#  19]+0.028*[#  10]+0.009*[#  16]
    |psi|^2 = 0.708

Lowdin Charges: 

     Atom #   1: total charge =  15.8309, s =  2.6384, p =  6.7107, d =  6.4819, 
                 spin up      =   9.4110, s =  1.3190, 
                 spin up      =   9.4110, p =  3.3726, pz=  1.0073, px=  1.3815, py=  0.9838, 
                 spin up      =   9.4110, d =  4.7195, dz2=  0.9317, dxz=  0.9917, dyz=  0.9996, dx2-y2=  0.8049, dxy=  0.9917, 
                 spin down    =   6.4199, s =  1.3194, 
                 spin down    =   6.4199, p =  3.3381, pz=  0.9995, px=  1.3391, py=  0.9995, 
                 spin down    =   6.4199, d =  1.7624, dz2=  0.6337, dxz=  0.2231, dyz=  0.2220, dx2-y2=  0.4333, dxy=  0.2504, 
                 polarization =   2.9911, s = -0.0005, p =  0.0345, d =  2.9571, 
     Atom #   2: total charge =  16.0925, s =  2.6712, p =  6.6415, d =  6.7798, 
                 spin up      =   9.6321, s =  1.3518, 
                 spin up      =   9.6321, p =  3.3045, pz=  1.0073, px=  1.3134, py=  0.9838, 
                 spin up      =   9.6321, d =  4.9758, dz2=  0.9958, dxz=  0.9917, dyz=  0.9996, dx2-y2=  0.9971, dxy=  0.9917, 
                 spin down    =   6.4605, s =  1.3194, 
                 spin down    =   6.4605, p =  3.3370, pz=  0.9989, px=  1.3391, py=  0.9989, 
                 spin down    =   6.4605, d =  1.8041, dz2=  0.6337, dxz=  0.2439, dyz=  0.2220, dx2-y2=  0.4333, dxy=  0.2712, 
                 polarization =   3.1716, s =  0.0324, p = -0.0324, d =  3.1717, 
     Spilling Parameter:   0.0024

     PROJWFC      :      2.46s CPU      2.57s WALL


   This run was terminated on:  13:48:21   3Oct2021            

=------------------------------------------------------------------------------=
   JOB DONE.
=------------------------------------------------------------------------------=
