
     Program PWSCF v.6.1 (svn rev. 13369) starts on  9Jul2019 at 16:33:25

     This program is part of the open-source Quantum ESPRESSO suite
     for quantum simulation of materials; please cite
         "P. Giannozzi et al., J. Phys.:Condens. Matter 21 395502 (2009);
          URL http://www.quantum-espresso.org",
     in publications or presentations arising from this work. More details at
     http://www.quantum-espresso.org/quote

     Parallel version (MPI), running on     1 processors
     Reading input from aiida.in

     Current dimensions of program PWSCF are:
     Max number of different atomic species (ntypx) = 10
     Max number of k-points (npk) =  40000
     Max angular momentum in pseudopotentials (lmaxx) =  3

     Subspace diagonalization in iterative solution of the eigenvalue problem:
     a serial algorithm will be used


     G-vector sticks info
     --------------------
     sticks:   dense  smooth     PW     G-vecs:    dense   smooth      PW
     Sum         859     433    127                16889     5985     965



     bravais-lattice index     =            0
     lattice parameter (alat)  =       7.2558  a.u.
     unit-cell volume          =     270.1072 (a.u.)^3
     number of atoms/cell      =            2
     number of atomic types    =            2
     number of electrons       =         8.00
     number of Kohn-Sham states=            4
     kinetic-energy cutoff     =      30.0000  Ry
     charge density cutoff     =     240.0000  Ry
     convergence threshold     =      1.0E-06
     mixing beta               =       0.7000
     number of iterations used =            8  plain     mixing
     Exchange-correlation      = PBE ( 1  4  3  4 0 0)
     nstep                     =           50


     celldm(1)=   7.255773  celldm(2)=   0.000000  celldm(3)=   0.000000
     celldm(4)=   0.000000  celldm(5)=   0.000000  celldm(6)=   0.000000

     crystal axes: (cart. coord. in units of alat)
               a(1) = (   0.707107   0.707107   0.000000 )
               a(2) = (   0.707107   0.000000   0.707107 )
               a(3) = (   0.000000   0.707107   0.707107 )

     reciprocal axes: (cart. coord. in units 2 pi/alat)
               b(1) = (  0.707107  0.707107 -0.707107 )
               b(2) = (  0.707107 -0.707107  0.707107 )
               b(3) = ( -0.707107  0.707107  0.707107 )


     PseudoPot. # 1 for Si read from file:
     ./pseudo/Si.pbe-n-rrkjus_psl.1.0.0.UPF
     MD5 check sum: 0b0bb1205258b0d07b9f9672cf965d36
     Pseudo is Ultrasoft + core correction, Zval =  4.0
     Generated using "atomic" code by A. Dal Corso  v.5.1
     Using radial grid of 1141 points,  6 beta functions with:
                l(1) =   0
                l(2) =   0
                l(3) =   1
                l(4) =   1
                l(5) =   2
                l(6) =   2
     Q(r) pseudized with 0 coefficients


     PseudoPot. # 2 for Si read from file:
     ./pseudo/Si.pbe-n-rrkjus_psl.1.0.0.UPF
     MD5 check sum: 0b0bb1205258b0d07b9f9672cf965d36
     Pseudo is Ultrasoft + core correction, Zval =  4.0
     Generated using "atomic" code by A. Dal Corso  v.5.1
     Using radial grid of 1141 points,  6 beta functions with:
                l(1) =   0
                l(2) =   0
                l(3) =   1
                l(4) =   1
                l(5) =   2
                l(6) =   2
     Q(r) pseudized with 0 coefficients


     atomic species   valence    mass     pseudopotential
        Si1            4.00    28.08550     Si( 1.00)
        Si2            4.00    28.08550     Si( 1.00)

      4 Sym. Ops. (no inversion) found


                                    s                        frac. trans.

      isym =  1     identity

 cryst.   s( 1) = (     1          0          0      )
                  (     0          1          0      )
                  (     0          0          1      )

 cart.    s( 1) = (  1.0000000  0.0000000  0.0000000 )
                  (  0.0000000  1.0000000  0.0000000 )
                  (  0.0000000  0.0000000  1.0000000 )


      isym =  2     180 deg rotation - cart. axis [0,0,1]

 cryst.   s( 2) = (    -1          0          0      )
                  (    -1          0          1      )
                  (    -1          1          0      )

 cart.    s( 2) = ( -1.0000000  0.0000000  0.0000000 )
                  (  0.0000000 -1.0000000  0.0000000 )
                  (  0.0000000  0.0000000  1.0000000 )


      isym =  3     inv. 180 deg rotation - cart. axis [1,1,0]

 cryst.   s( 3) = (    -1          0          0      )
                  (    -1          1          0      )
                  (    -1          0          1      )

 cart.    s( 3) = (  0.0000000 -1.0000000  0.0000000 )
                  ( -1.0000000  0.0000000  0.0000000 )
                  (  0.0000000  0.0000000  1.0000000 )


      isym =  4     inv. 180 deg rotation - cart. axis [1,-1,0]

 cryst.   s( 4) = (     1          0          0      )
                  (     0          0          1      )
                  (     0          1          0      )

 cart.    s( 4) = (  0.0000000  1.0000000  0.0000000 )
                  (  1.0000000  0.0000000  0.0000000 )
                  (  0.0000000  0.0000000  1.0000000 )


   Cartesian axes

     site n.     atom                  positions (alat units)
         1           Si1 tau(   1) = (   0.0000000   0.0000000   0.0000000  )
         2           Si2 tau(   2) = (   0.3535534   0.3535534   0.3721615  )

   Crystallographic axes

     site n.     atom                  positions (cryst. coord.)
         1           Si1 tau(   1) = (  0.0000000  0.0000000  0.0000000  )
         2           Si2 tau(   2) = (  0.2368421  0.2631579  0.2631579  )

     number of k points=     5
                       cart. coord. in units 2pi/alat
        k(    1) = (   0.0000000   0.0000000   0.0000000), wk =   0.2500000
        k(    2) = (   0.3535534  -0.3535534  -0.3535534), wk =   0.5000000
        k(    3) = (   0.0000000   0.0000000  -0.7071068), wk =   0.2500000
        k(    4) = (  -0.3535534  -0.3535534  -0.3535534), wk =   0.5000000
        k(    5) = (  -0.7071068   0.0000000   0.0000000), wk =   0.5000000

                       cryst. coord.
        k(    1) = (   0.0000000   0.0000000   0.0000000), wk =   0.2500000
        k(    2) = (   0.0000000   0.0000000  -0.5000000), wk =   0.5000000
        k(    3) = (   0.0000000  -0.5000000  -0.5000000), wk =   0.2500000
        k(    4) = (  -0.5000000  -0.5000000  -0.5000000), wk =   0.5000000
        k(    5) = (  -0.5000000  -0.5000000   0.0000000), wk =   0.5000000

     Dense  grid:    16889 G-vectors     FFT dimensions: (  36,  36,  36)

     Smooth grid:     5985 G-vectors     FFT dimensions: (  25,  25,  25)

     Estimated max dynamical RAM per process >      11.20MB

     Initial potential from superposition of free atoms

     starting charge    7.99888, renormalised to    8.00000
     Starting wfc are    8 randomized atomic wfcs

     total cpu time spent up to now is        1.5 secs

     per-process dynamical memory:    23.1 Mb

     Self-consistent Calculation

     iteration #  1     ecut=    30.00 Ry     beta=0.70
     Davidson diagonalization with overlap
     ethr =  1.00E-02,  avg # of iterations =  2.0

     total cpu time spent up to now is        1.8 secs

     total energy              =     -22.64012205 Ry
     Harris-Foulkes estimate   =     -22.66909738 Ry
     estimated scf accuracy    <       0.10568828 Ry

     iteration #  2     ecut=    30.00 Ry     beta=0.70
     Davidson diagonalization with overlap
     ethr =  1.32E-03,  avg # of iterations =  1.0

     total cpu time spent up to now is        2.1 secs

     total energy              =     -22.64655389 Ry
     Harris-Foulkes estimate   =     -22.64682590 Ry
     estimated scf accuracy    <       0.00521948 Ry

     iteration #  3     ecut=    30.00 Ry     beta=0.70
     Davidson diagonalization with overlap
     ethr =  6.52E-05,  avg # of iterations =  3.0

     total cpu time spent up to now is        2.3 secs

     total energy              =     -22.64833846 Ry
     Harris-Foulkes estimate   =     -22.64841765 Ry
     estimated scf accuracy    <       0.00027785 Ry

     iteration #  4     ecut=    30.00 Ry     beta=0.70
     Davidson diagonalization with overlap
     ethr =  3.47E-06,  avg # of iterations =  2.0

     total cpu time spent up to now is        2.6 secs

     total energy              =     -22.64835823 Ry
     Harris-Foulkes estimate   =     -22.64843482 Ry
     estimated scf accuracy    <       0.00016365 Ry

     iteration #  5     ecut=    30.00 Ry     beta=0.70
     Davidson diagonalization with overlap
     ethr =  2.05E-06,  avg # of iterations =  1.4

     total cpu time spent up to now is        2.9 secs

     End of self-consistent calculation

          k = 0.0000 0.0000 0.0000 (   749 PWs)   bands (ev):

    -5.5224   6.1522   6.5183   6.8594

     occupation numbers
     1.0000   1.0000   1.0000   1.0000

          k = 0.3536-0.3536-0.3536 (   754 PWs)   bands (ev):

    -3.0854  -0.7205   5.1396   5.4951

     occupation numbers
     1.0000   1.0000   1.0000   1.0000

          k = 0.0000 0.0000-0.7071 (   740 PWs)   bands (ev):

    -1.5866  -1.1122   3.4545   3.6985

     occupation numbers
     1.0000   1.0000   1.0000   1.0000

          k =-0.3536-0.3536-0.3536 (   754 PWs)   bands (ev):

    -3.2570  -0.3612   5.0426   5.4341

     occupation numbers
     1.0000   1.0000   1.0000   1.0000

          k =-0.7071 0.0000 0.0000 (   740 PWs)   bands (ev):

    -1.3612  -1.3611   3.5944   3.5948

     occupation numbers
     1.0000   1.0000   1.0000   1.0000

     highest occupied level (ev):     6.8594

!    total energy              =     -22.64837144 Ry
     Harris-Foulkes estimate   =     -22.64837143 Ry
     estimated scf accuracy    <       0.00000037 Ry

     The total energy is the sum of the following terms:

     one-electron contribution =       5.27086937 Ry
     hartree contribution      =       1.26988560 Ry
     xc contribution           =     -12.39469663 Ry
     ewald contribution        =     -16.79442979 Ry

     convergence has been achieved in   5 iterations

     Forces acting on atoms (cartesian axes, Ry/au):

     atom    1 type  1   force =    -0.00000000    0.00000000    0.04912923
     atom    2 type  2   force =     0.00000000   -0.00000000   -0.04912923
     The non-local contrib.  to forces
     atom    1 type  1   force =    -0.00000000    0.00000000    0.03170964
     atom    2 type  2   force =     0.00000000    0.00000000   -0.03128178
     The ionic contribution  to forces
     atom    1 type  1   force =     0.00000000    0.00000000    0.06672683
     atom    2 type  2   force =     0.00000000   -0.00000000   -0.06672683
     The local contribution  to forces
     atom    1 type  1   force =     0.00000000    0.00000000   -0.04554518
     atom    2 type  2   force =    -0.00000000   -0.00000000    0.04522141
     The core correction contribution to forces
     atom    1 type  1   force =     0.00000000   -0.00000000   -0.00369459
     atom    2 type  2   force =     0.00000000    0.00000000    0.00366862
     The Hubbard contrib.    to forces
     atom    1 type  1   force =     0.00000000    0.00000000    0.00000000
     atom    2 type  2   force =     0.00000000    0.00000000    0.00000000
     The SCF correction term to forces
     atom    1 type  1   force =    -0.00000000    0.00000000   -0.00003748
     atom    2 type  2   force =    -0.00000000    0.00000000    0.00001933

     Total force =     0.069479     Total SCF correction =     0.000042

     BFGS Geometry Optimization

     number of scf cycles    =   1
     number of bfgs steps    =   0

     energy   new            =     -22.6483714384 Ry

     new trust radius        =       0.0491292327 bohr
     new conv_thr            =       0.0000010000 Ry


ATOMIC_POSITIONS (angstrom)
Si1      0.000000000   0.000000000   0.025998070
Si2      1.357500000   1.357500000   1.402949298



     Writing output data file aiida.save
     NEW-OLD atomic charge density approx. for the potential

     total cpu time spent up to now is        3.3 secs

     per-process dynamical memory:    21.9 Mb

     Self-consistent Calculation

     iteration #  1     ecut=    30.00 Ry     beta=0.70
     Davidson diagonalization with overlap
     ethr =  1.00E-06,  avg # of iterations =  4.8

     total cpu time spent up to now is        3.6 secs

     total energy              =     -22.65144307 Ry
     Harris-Foulkes estimate   =     -22.65143446 Ry
     estimated scf accuracy    <       0.00007677 Ry

     iteration #  2     ecut=    30.00 Ry     beta=0.70
     Davidson diagonalization with overlap
     ethr =  9.60E-07,  avg # of iterations =  1.0

     total cpu time spent up to now is        3.9 secs

     End of self-consistent calculation

     convergence NOT achieved after  2 iterations: stopping


     Writing output data file aiida.save

     init_run     :      1.03s CPU      1.06s WALL (       1 calls)
     electrons    :      2.75s CPU      3.77s WALL (       4 calls)
     update_pot   :      0.22s CPU      0.23s WALL (       3 calls)
     forces       :      0.52s CPU      0.72s WALL (       4 calls)

     Called by init_run:
     wfcinit      :      0.02s CPU      0.03s WALL (       1 calls)
     wfcinit:atom :      0.00s CPU      0.00s WALL (       5 calls)
     wfcinit:wfcr :      0.02s CPU      0.02s WALL (       5 calls)
     potinit      :      0.04s CPU      0.04s WALL (       1 calls)

     Called by electrons:
     c_bands      :      0.56s CPU      0.58s WALL (      13 calls)
     sum_band     :      1.07s CPU      1.62s WALL (      13 calls)
     v_of_rho     :      0.48s CPU      0.49s WALL (      16 calls)
     v_h          :      0.00s CPU      0.02s WALL (      16 calls)
     v_xc         :      0.57s CPU      0.59s WALL (      20 calls)
     newd         :      0.94s CPU      1.54s WALL (      16 calls)
     mix_rho      :      0.03s CPU      0.02s WALL (      13 calls)

     Called by c_bands:
     init_us_2    :      0.06s CPU      0.07s WALL (     155 calls)
     cegterg      :      0.50s CPU      0.50s WALL (      65 calls)

     Called by sum_band:
     sum_band:bec :      0.00s CPU      0.00s WALL (      65 calls)
     addusdens    :      0.92s CPU      1.45s WALL (      13 calls)

     Called by *egterg:
     h_psi        :      0.45s CPU      0.46s WALL (     216 calls)
     s_psi        :      0.02s CPU      0.03s WALL (     216 calls)
     g_psi        :      0.00s CPU      0.00s WALL (     146 calls)
     cdiaghg      :      0.01s CPU      0.01s WALL (     191 calls)
     cegterg:over :      0.02s CPU      0.01s WALL (     146 calls)
     cegterg:upda :      0.01s CPU      0.01s WALL (     146 calls)
     cegterg:last :      0.00s CPU      0.00s WALL (      77 calls)

     Called by h_psi:
     h_psi:pot    :      0.45s CPU      0.46s WALL (     216 calls)
     h_psi:calbec :      0.04s CPU      0.03s WALL (     216 calls)
     vloc_psi     :      0.38s CPU      0.39s WALL (     216 calls)
     add_vuspsi   :      0.02s CPU      0.03s WALL (     216 calls)

     General routines
     calbec       :      0.06s CPU      0.06s WALL (     361 calls)
     fft          :      0.25s CPU      0.29s WALL (     291 calls)
     ffts         :      0.00s CPU      0.01s WALL (      29 calls)
     fftw         :      0.40s CPU      0.41s WALL (    1842 calls)
     interpolate  :      0.04s CPU      0.04s WALL (      29 calls)
     davcio       :      0.00s CPU      0.00s WALL (       5 calls)

     Parallel routines
     fft_scatter  :      0.05s CPU      0.04s WALL (    2162 calls)

     PWSCF        :     5.23s CPU         6.65s WALL


   This run was terminated on:  16:33:31   9Jul2019

=------------------------------------------------------------------------------=
   JOB DONE.
=------------------------------------------------------------------------------=

