
     Program PWSCF v.6.5 starts on 17Nov2020 at 17:12:15

... CONTENT REMOVED

     bravais-lattice index     =            0
     lattice parameter (alat)  =       8.0059  a.u.
     unit-cell volume          =     350.5939 (a.u.)^3
     number of atoms/cell      =            2
     number of atomic types    =            2
     number of electrons       =        20.00
     number of Kohn-Sham states=           14
     kinetic-energy cutoff     =      40.0000  Ry
     charge density cutoff     =     320.0000  Ry
     convergence threshold     =      4.0E-10
     mixing beta               =       0.4000
     number of iterations used =            8  plain     mixing
     Exchange-correlation= SLA  PW   PBE  PBE
                           (   1   4   3   4   0   0   0)
     nstep                     =           50

... CONTENT REMOVED

     total cpu time spent up to now is      323.0 secs

     Self-consistent Calculation

... CONTENT REMOVED

     the Fermi energy is     8.1275 ev

!    total energy              =    -240.16252753 Ry
     Harris-Foulkes estimate   =    -240.16252753 Ry
     estimated scf accuracy    <          1.5E-12 Ry

     The total energy is the sum of the following terms:

     one-electron contribution =    -144.77663418 Ry
     hartree contribution      =      88.34090392 Ry
     xc contribution           =     -72.71620291 Ry
     ewald contribution        =    -111.01067256 Ry
     smearing contrib. (-TS)   =       0.00007819 Ry

     convergence has been achieved in   4 iterations

     Forces acting on atoms (cartesian axes, Ry/au):

     atom    1 type  1   force =     0.00000079    0.00000056    0.00000141
     atom    2 type  2   force =    -0.00000079   -0.00000056   -0.00000141
     The non-local contrib.  to forces
     atom    1 type  1   force =     0.15622570    0.10926598    0.27881771
     atom    2 type  2   force =     0.00354583    0.00248001    0.00632830
     The ionic contribution  to forces
     atom    1 type  1   force =    -0.57009810   -0.39873271   -1.01746018
     atom    2 type  2   force =     0.57009810    0.39873271    1.01746018
     The local contribution  to forces
     atom    1 type  1   force =     0.41544474    0.29056647    0.74144865
     atom    2 type  2   force =    -0.57616749   -0.40297774   -1.02829229
     The core correction contribution to forces
     atom    1 type  1   force =    -0.00156968   -0.00109785   -0.00280143
     atom    2 type  2   force =     0.00252142    0.00176351    0.00450001
     The Hubbard contrib.    to forces
     atom    1 type  1   force =     0.00000000    0.00000000    0.00000000
     atom    2 type  2   force =     0.00000000    0.00000000    0.00000000
     The SCF correction term to forces
     atom    1 type  1   force =    -0.00000308   -0.00000217   -0.00000548
     atom    2 type  2   force =     0.00000014    0.00000010    0.00000026

     Total force =     0.000002     Total SCF correction =     0.000007
     SCF correction compared to forces is large: reduce conv_thr to get better values


     Computing stress (Cartesian axis) and pressure

          total   stress  (Ry/bohr**3)                   (kbar)     P=       40.54
   0.00027557  -0.00000001  -0.00000003           40.54       -0.00       -0.00
  -0.00000001   0.00027558  -0.00000002           -0.00       40.54       -0.00
  -0.00000003  -0.00000002   0.00027553           -0.00       -0.00       40.53

... CONTENT REMOVED

     Volume is kept fixed: isostatic pressure set to zero

     bfgs converged in  11 scf cycles and  10 bfgs steps
     (criteria: energy <  2.0E-05 Ry, force <  1.0E-05Ry/Bohr, cell <  5.0E-01kbar)

     End of BFGS Geometry Optimization

     Final enthalpy =    -240.1625275346 Ry
Begin final coordinates
     new unit-cell volume =    350.59388 a.u.^3 (    51.95265 Ang^3 )
     density =      6.40018 g/cm^3

CELL_PARAMETERS (angstrom)
   3.611342424  -0.005089132   2.202325529
   1.233995567   3.393976270   2.202325513
  -0.007276276  -0.005089135   4.229891133

ATOMIC_POSITIONS (angstrom)
Ge            3.7017172392        2.5890250446        6.6064956140
Te            1.1363444759        0.7947729587        2.0280465607
End final coordinates

     Writing output data file ./out/aiida.save/

     Final scf calculation at the relaxed structure.


     the Fermi energy is     8.1275 ev

!    total energy              =    -240.16252748 Ry
     Harris-Foulkes estimate   =    -240.16252747 Ry
     estimated scf accuracy    <          1.8E-12 Ry

     The total energy is the sum of the following terms:

     one-electron contribution =    -144.77662900 Ry
     hartree contribution      =      88.34089835 Ry
     xc contribution           =     -72.71620246 Ry
     ewald contribution        =    -111.01067256 Ry
     smearing contrib. (-TS)   =       0.00007819 Ry

     convergence has been achieved in  10 iterations

     Forces acting on atoms (cartesian axes, Ry/au):

     atom    1 type  1   force =     0.00000403    0.00000287    0.00000721
     atom    2 type  2   force =    -0.00000403   -0.00000287   -0.00000721
     The non-local contrib.  to forces
     atom    1 type  1   force =     0.15622820    0.10926780    0.27882220
     atom    2 type  2   force =     0.00354609    0.00248022    0.00632878
     The ionic contribution  to forces
     atom    1 type  1   force =    -0.57009810   -0.39873271   -1.01746018
     atom    2 type  2   force =     0.57009810    0.39873271    1.01746018
     The local contribution  to forces
     atom    1 type  1   force =     0.41544124    0.29056392    0.74144239
     atom    2 type  2   force =    -0.57616757   -0.40297781   -1.02829247
     The core correction contribution to forces
     atom    1 type  1   force =    -0.00156981   -0.00109794   -0.00280166
     atom    2 type  2   force =     0.00252145    0.00176353    0.00450006
     The Hubbard contrib.    to forces
     atom    1 type  1   force =     0.00000000    0.00000000    0.00000000
     atom    2 type  2   force =     0.00000000    0.00000000    0.00000000
     The SCF correction term to forces
     atom    1 type  1   force =     0.00000443    0.00000321    0.00000793
     atom    2 type  2   force =    -0.00000015   -0.00000012   -0.00000028

     Total force =     0.000012     Total SCF correction =     0.000010
     SCF correction compared to forces is large: reduce conv_thr to get better values


     Computing stress (Cartesian axis) and pressure

          total   stress  (Ry/bohr**3)                   (kbar)     P=       40.53
   0.00027553  -0.00000001  -0.00000002           40.53       -0.00       -0.00
  -0.00000001   0.00027554  -0.00000001           -0.00       40.53       -0.00
  -0.00000002  -0.00000001   0.00027551           -0.00       -0.00       40.53

... CONTENT REMOVED

=------------------------------------------------------------------------------=
   JOB DONE.
=------------------------------------------------------------------------------=
