
     Program PWSCF v.6.3 starts on 16Nov2018 at 18:37:12 

     This program is part of the open-source Quantum ESPRESSO suite
     for quantum simulation of materials; please cite
         "P. Giannozzi et al., J. Phys.:Condens. Matter 21 395502 (2009);
         "P. Giannozzi et al., J. Phys.:Condens. Matter 29 465901 (2017);
          URL http://www.quantum-espresso.org", 
     in publications or presentations arising from this work. More details at
     http://www.quantum-espresso.org/quote

 *** WARNING: using old-style file format, will disappear from next version ***

     Parallel version (MPI), running on    12 processors

     MPI processes distributed on     1 nodes
     K-points division:     npool     =       2
     R & G space division:  proc/nbgrp/npool/nimage =       6
     Reading input from aiida.in

     Current dimensions of program PWSCF are:
     Max number of different atomic species (ntypx) = 10
     Max number of k-points (npk) =  40000
     Max angular momentum in pseudopotentials (lmaxx) =  3

     Subspace diagonalization in iterative solution of the eigenvalue problem:
     a serial algorithm will be used

     Message from routine setup:
     Dynamics, you should have no symmetries

     Parallelization info
     --------------------
     sticks:   dense  smooth     PW     G-vecs:    dense   smooth      PW
     Min         192      96     31                 4046     1435     278
     Max         193      97     34                 4047     1436     279
     Sum        1153     579    193                24277     8611    1671



     bravais-lattice index     =            0
     lattice parameter (alat)  =       8.0009  a.u.
     unit-cell volume          =     306.7748 (a.u.)^3
     number of atoms/cell      =            2
     number of atomic types    =            1
     number of electrons       =        10.00
     number of Kohn-Sham states=            9
     kinetic-energy cutoff     =      35.0000  Ry
     charge density cutoff     =     280.0000  Ry
     convergence threshold     =      4.0E-12
     mixing beta               =       0.4000
     number of iterations used =            8  plain     mixing
     Exchange-correlation      = PBE ( 1  4  3  4 0 0)
     nstep                     =           50


     celldm(1)=   8.000890  celldm(2)=   0.000000  celldm(3)=   0.000000
     celldm(4)=   0.000000  celldm(5)=   0.000000  celldm(6)=   0.000000

     crystal axes: (cart. coord. in units of alat)
               a(1) = (   0.449827   0.259708   0.854522 )  
               a(2) = (  -0.449827   0.259708   0.854522 )  
               a(3) = (   0.000000  -0.519416   0.854522 )  

     reciprocal axes: (cart. coord. in units 2 pi/alat)
               b(1) = (  1.111538  0.641747  0.390082 )  
               b(2) = ( -1.111538  0.641747  0.390082 )  
               b(3) = (  0.000000 -1.283494  0.390082 )  


     PseudoPot. # 1 for As read from file:
     ./pseudo/As.pbe-n-rrkjus_psl.0.2.UPF
     MD5 check sum: 767315de957beeeb34f87d97bf945c8f
     Pseudo is Ultrasoft + core correction, Zval =  5.0
     Generated using "atomic" code by A. Dal Corso v.5.0.99 svn rev. 10869
     Using radial grid of 1209 points,  4 beta functions with: 
                l(1) =   0
                l(2) =   0
                l(3) =   1
                l(4) =   1
     Q(r) pseudized with 0 coefficients 


     atomic species   valence    mass     pseudopotential
        As             5.00    74.92160     As( 1.00)

     12 Sym. Ops., with inversion, found


                                    s                        frac. trans.

      isym =  1     identity                                     

 cryst.   s( 1) = (     1          0          0      )
                  (     0          1          0      )
                  (     0          0          1      )

 cart.    s( 1) = (  1.0000000  0.0000000  0.0000000 )
                  (  0.0000000  1.0000000 -0.0000000 )
                  (  0.0000000  0.0000000  1.0000000 )


      isym =  2     180 deg rotation - cart. axis [1,0,0]        

 cryst.   s( 2) = (     0         -1          0      )
                  (    -1          0          0      )
                  (     0          0         -1      )

 cart.    s( 2) = (  1.0000000  0.0000000  0.0000000 )
                  (  0.0000000 -1.0000000  0.0000000 )
                  (  0.0000000  0.0000000 -1.0000000 )


      isym =  3     120 deg rotation - cryst. axis [0,0,1]       

 cryst.   s( 3) = (     0          1          0      )
                  (     0          0          1      )
                  (     1          0          0      )

 cart.    s( 3) = ( -0.5000000 -0.8660254 -0.0000000 )
                  (  0.8660254 -0.5000000 -0.0000000 )
                  (  0.0000000  0.0000000  1.0000000 )


      isym =  4     120 deg rotation - cryst. axis [0,0,-1]      

 cryst.   s( 4) = (     0          0          1      )
                  (     1          0          0      )
                  (     0          1          0      )

 cart.    s( 4) = ( -0.5000000  0.8660254  0.0000000 )
                  ( -0.8660254 -0.5000000 -0.0000000 )
                  (  0.0000000  0.0000000  1.0000000 )


      isym =  5     180 deg rotation - cryst. axis [0,1,0]       

 cryst.   s( 5) = (    -1          0          0      )
                  (     0          0         -1      )
                  (     0         -1          0      )

 cart.    s( 5) = ( -0.5000000 -0.8660254 -0.0000000 )
                  ( -0.8660254  0.5000000  0.0000000 )
                  (  0.0000000  0.0000000 -1.0000000 )


      isym =  6     180 deg rotation - cryst. axis [1,1,0]       

 cryst.   s( 6) = (     0          0         -1      )
                  (     0         -1          0      )
                  (    -1          0          0      )

 cart.    s( 6) = ( -0.5000000  0.8660254  0.0000000 )
                  (  0.8660254  0.5000000  0.0000000 )
                  (  0.0000000  0.0000000 -1.0000000 )


      isym =  7     inversion                                    

 cryst.   s( 7) = (    -1          0          0      )
                  (     0         -1          0      )
                  (     0          0         -1      )

 cart.    s( 7) = ( -1.0000000  0.0000000  0.0000000 )
                  (  0.0000000 -1.0000000  0.0000000 )
                  (  0.0000000  0.0000000 -1.0000000 )


      isym =  8     inv. 180 deg rotation - cart. axis [1,0,0]   

 cryst.   s( 8) = (     0          1          0      )
                  (     1          0          0      )
                  (     0          0          1      )

 cart.    s( 8) = ( -1.0000000  0.0000000  0.0000000 )
                  (  0.0000000  1.0000000 -0.0000000 )
                  (  0.0000000  0.0000000  1.0000000 )


      isym =  9     inv. 120 deg rotation - cryst. axis [0,0,1]  

 cryst.   s( 9) = (     0         -1          0      )
                  (     0          0         -1      )
                  (    -1          0          0      )

 cart.    s( 9) = (  0.5000000  0.8660254  0.0000000 )
                  ( -0.8660254  0.5000000  0.0000000 )
                  (  0.0000000  0.0000000 -1.0000000 )


      isym = 10     inv. 120 deg rotation - cryst. axis [0,0,-1] 

 cryst.   s(10) = (     0          0         -1      )
                  (    -1          0          0      )
                  (     0         -1          0      )

 cart.    s(10) = (  0.5000000 -0.8660254 -0.0000000 )
                  (  0.8660254  0.5000000  0.0000000 )
                  (  0.0000000  0.0000000 -1.0000000 )


      isym = 11     inv. 180 deg rotation - cryst. axis [0,1,0]  

 cryst.   s(11) = (     1          0          0      )
                  (     0          0          1      )
                  (     0          1          0      )

 cart.    s(11) = (  0.5000000  0.8660254  0.0000000 )
                  (  0.8660254 -0.5000000 -0.0000000 )
                  (  0.0000000  0.0000000  1.0000000 )


      isym = 12     inv. 180 deg rotation - cryst. axis [1,1,0]  

 cryst.   s(12) = (     0          0          1      )
                  (     0          1          0      )
                  (     1          0          0      )

 cart.    s(12) = (  0.5000000 -0.8660254 -0.0000000 )
                  ( -0.8660254 -0.5000000 -0.0000000 )
                  (  0.0000000  0.0000000  1.0000000 )


   Cartesian axes

     site n.     atom                  positions (alat units)
         1           As  tau(   1) = (  -0.0000000  -0.0000000   0.5799507  )
         2           As  tau(   2) = (   0.0000000  -0.0000000   1.9836147  )

   Crystallographic axes

     site n.     atom                  positions (cryst. coord.)
         1           As  tau(   1) = (  0.2262282  0.2262282  0.2262282  )
         2           As  tau(   2) = (  0.7737718  0.7737718  0.7737718  )

     number of k points=   288  Marzari-Vanderbilt smearing, width (Ry)=  0.0100
                       cart. coord. in units 2pi/alat
        k(    1) = (   0.0000000   0.0000000   0.0000000), wk =   0.0007289
        k(    2) = (   0.0000000  -0.0916781   0.0278630), wk =   0.0043732
        k(    3) = (   0.0000000  -0.1833563   0.0557260), wk =   0.0043732
        k(    4) = (   0.0000000  -0.2750344   0.0835889), wk =   0.0043732
        k(    5) = (   0.0000000  -0.3667125   0.1114519), wk =   0.0043732
        k(    6) = (   0.0000000  -0.4583907   0.1393149), wk =   0.0043732
        k(    7) = (   0.0000000  -0.5500688   0.1671779), wk =   0.0043732
        k(    8) = (   0.0000000   0.6417469  -0.1950409), wk =   0.0021866
        k(    9) = (  -0.0793956  -0.0458391   0.0557260), wk =   0.0043732
        k(   10) = (  -0.0793956  -0.1375172   0.0835889), wk =   0.0087464
        k(   11) = (  -0.0793956  -0.2291953   0.1114519), wk =   0.0087464
        k(   12) = (  -0.0793956  -0.3208735   0.1393149), wk =   0.0087464
        k(   13) = (  -0.0793956  -0.4125516   0.1671779), wk =   0.0087464
        k(   14) = (  -0.0793956  -0.5042297   0.1950409), wk =   0.0087464
        k(   15) = (  -0.0793956   0.6875860  -0.1671779), wk =   0.0087464
        k(   16) = (  -0.0793956   0.5959079  -0.1393149), wk =   0.0087464
        k(   17) = (  -0.0793956   0.5042297  -0.1114519), wk =   0.0087464
        k(   18) = (  -0.0793956   0.4125516  -0.0835889), wk =   0.0087464
        k(   19) = (  -0.0793956   0.3208735  -0.0557260), wk =   0.0087464
        k(   20) = (  -0.0793956   0.2291953  -0.0278630), wk =   0.0087464
        k(   21) = (  -0.0793956   0.1375172   0.0000000), wk =   0.0043732
        k(   22) = (  -0.1587912  -0.0916781   0.1114519), wk =   0.0043732
        k(   23) = (  -0.1587912  -0.1833563   0.1393149), wk =   0.0087464
        k(   24) = (  -0.1587912  -0.2750344   0.1671779), wk =   0.0087464
        k(   25) = (  -0.1587912  -0.3667125   0.1950409), wk =   0.0087464
        k(   26) = (  -0.1587912  -0.4583907   0.2229038), wk =   0.0087464
        k(   27) = (  -0.1587912   0.7334251  -0.1393149), wk =   0.0087464
        k(   28) = (  -0.1587912   0.6417469  -0.1114519), wk =   0.0087464
        k(   29) = (  -0.1587912   0.5500688  -0.0835889), wk =   0.0087464
        k(   30) = (  -0.1587912   0.4583907  -0.0557260), wk =   0.0087464
        k(   31) = (  -0.1587912   0.3667125  -0.0278630), wk =   0.0087464
        k(   32) = (  -0.1587912   0.2750344   0.0000000), wk =   0.0043732
        k(   33) = (  -0.2381868  -0.1375172   0.1671779), wk =   0.0043732
        k(   34) = (  -0.2381868  -0.2291953   0.1950409), wk =   0.0087464
        k(   35) = (  -0.2381868  -0.3208735   0.2229038), wk =   0.0087464
        k(   36) = (  -0.2381868  -0.4125516   0.2507668), wk =   0.0087464
        k(   37) = (  -0.2381868   0.7792641  -0.1114519), wk =   0.0087464
        k(   38) = (  -0.2381868   0.6875860  -0.0835889), wk =   0.0087464
        k(   39) = (  -0.2381868   0.5959079  -0.0557260), wk =   0.0087464
        k(   40) = (  -0.2381868   0.5042297  -0.0278630), wk =   0.0087464
        k(   41) = (  -0.2381868   0.4125516   0.0000000), wk =   0.0043732
        k(   42) = (  -0.3175824  -0.1833563   0.2229038), wk =   0.0043732
        k(   43) = (  -0.3175824  -0.2750344   0.2507668), wk =   0.0087464
        k(   44) = (  -0.3175824  -0.3667125   0.2786298), wk =   0.0087464
        k(   45) = (  -0.3175824   0.8251032  -0.0835889), wk =   0.0087464
        k(   46) = (  -0.3175824   0.7334251  -0.0557260), wk =   0.0087464
        k(   47) = (  -0.3175824   0.6417469  -0.0278630), wk =   0.0087464
        k(   48) = (  -0.3175824   0.5500688   0.0000000), wk =   0.0043732
        k(   49) = (  -0.3969780  -0.2291953   0.2786298), wk =   0.0043732
        k(   50) = (  -0.3969780  -0.3208735   0.3064928), wk =   0.0087464
        k(   51) = (  -0.3969780   0.8709423  -0.0557260), wk =   0.0087464
        k(   52) = (  -0.3969780   0.7792641  -0.0278630), wk =   0.0087464
        k(   53) = (  -0.3969780   0.6875860   0.0000000), wk =   0.0043732
        k(   54) = (  -0.4763735  -0.2750344   0.3343558), wk =   0.0043732
        k(   55) = (  -0.4763735   0.9167813  -0.0278630), wk =   0.0087464
        k(   56) = (  -0.4763735   0.8251032   0.0000000), wk =   0.0043732
        k(   57) = (   0.5557691   0.3208735  -0.3900817), wk =   0.0021866
        k(   58) = (   0.0000000   0.0000000   0.0835889), wk =   0.0014577
        k(   59) = (   0.0000000  -0.0916781   0.1114519), wk =   0.0043732
        k(   60) = (   0.0000000  -0.1833563   0.1393149), wk =   0.0043732
        k(   61) = (   0.0000000  -0.2750344   0.1671779), wk =   0.0043732
        k(   62) = (   0.0000000  -0.3667125   0.1950409), wk =   0.0043732
        k(   63) = (   0.0000000  -0.4583907   0.2229038), wk =   0.0043732
        k(   64) = (   0.0000000   0.7334251  -0.1393149), wk =   0.0043732
        k(   65) = (   0.0000000   0.6417469  -0.1114519), wk =   0.0043732
        k(   66) = (   0.0000000   0.5500688  -0.0835889), wk =   0.0043732
        k(   67) = (   0.0000000   0.4583907  -0.0557260), wk =   0.0043732
        k(   68) = (   0.0000000   0.3667125  -0.0278630), wk =   0.0043732
        k(   69) = (   0.0000000   0.2750344   0.0000000), wk =   0.0043732
        k(   70) = (   0.0000000   0.1833563   0.0278630), wk =   0.0043732
        k(   71) = (  -0.0793956  -0.0458391   0.1393149), wk =   0.0043732
        k(   72) = (  -0.0793956  -0.1375172   0.1671779), wk =   0.0087464
        k(   73) = (  -0.0793956  -0.2291953   0.1950409), wk =   0.0087464
        k(   74) = (  -0.0793956  -0.3208735   0.2229038), wk =   0.0087464
        k(   75) = (  -0.0793956  -0.4125516   0.2507668), wk =   0.0087464
        k(   76) = (  -0.0793956   0.7792641  -0.1114519), wk =   0.0087464
        k(   77) = (  -0.0793956   0.6875860  -0.0835889), wk =   0.0087464
        k(   78) = (  -0.0793956   0.5959079  -0.0557260), wk =   0.0087464
        k(   79) = (  -0.0793956   0.5042297  -0.0278630), wk =   0.0087464
        k(   80) = (  -0.0793956   0.4125516   0.0000000), wk =   0.0087464
        k(   81) = (  -0.0793956   0.3208735   0.0278630), wk =   0.0087464
        k(   82) = (  -0.0793956   0.2291953   0.0557260), wk =   0.0087464
        k(   83) = (  -0.1587912  -0.0916781   0.1950409), wk =   0.0043732
        k(   84) = (  -0.1587912  -0.1833563   0.2229038), wk =   0.0087464
        k(   85) = (  -0.1587912  -0.2750344   0.2507668), wk =   0.0087464
        k(   86) = (  -0.1587912  -0.3667125   0.2786298), wk =   0.0087464
        k(   87) = (  -0.1587912   0.8251032  -0.0835889), wk =   0.0087464
        k(   88) = (  -0.1587912   0.7334251  -0.0557260), wk =   0.0087464
        k(   89) = (  -0.1587912   0.6417469  -0.0278630), wk =   0.0087464
        k(   90) = (  -0.1587912   0.5500688   0.0000000), wk =   0.0087464
        k(   91) = (  -0.1587912   0.4583907   0.0278630), wk =   0.0087464
        k(   92) = (  -0.1587912   0.3667125   0.0557260), wk =   0.0087464
        k(   93) = (  -0.1587912   0.2750344   0.0835889), wk =   0.0087464
        k(   94) = (  -0.2381868  -0.1375172   0.2507668), wk =   0.0043732
        k(   95) = (  -0.2381868  -0.2291953   0.2786298), wk =   0.0087464
        k(   96) = (  -0.2381868  -0.3208735   0.3064928), wk =   0.0087464
        k(   97) = (  -0.2381868   0.8709423  -0.0557260), wk =   0.0087464
        k(   98) = (  -0.2381868   0.7792641  -0.0278630), wk =   0.0087464
        k(   99) = (  -0.2381868   0.6875860   0.0000000), wk =   0.0087464
        k(  100) = (  -0.2381868   0.5959079   0.0278630), wk =   0.0087464
        k(  101) = (  -0.2381868   0.5042297   0.0557260), wk =   0.0087464
        k(  102) = (  -0.2381868   0.4125516   0.0835889), wk =   0.0087464
        k(  103) = (  -0.2381868   0.3208735   0.1114519), wk =   0.0087464
        k(  104) = (  -0.3175824  -0.1833563   0.3064928), wk =   0.0043732
        k(  105) = (  -0.3175824  -0.2750344   0.3343558), wk =   0.0087464
        k(  106) = (  -0.3175824   0.9167813  -0.0278630), wk =   0.0087464
        k(  107) = (  -0.3175824   0.8251032   0.0000000), wk =   0.0087464
        k(  108) = (  -0.3175824   0.7334251   0.0278630), wk =   0.0087464
        k(  109) = (  -0.3175824   0.6417469   0.0557260), wk =   0.0087464
        k(  110) = (  -0.3175824   0.5500688   0.0835889), wk =   0.0087464
        k(  111) = (  -0.3175824   0.4583907   0.1114519), wk =   0.0087464
        k(  112) = (  -0.3175824   0.3667125   0.1393149), wk =   0.0087464
        k(  113) = (  -0.3969780  -0.2291953   0.3622187), wk =   0.0043732
        k(  114) = (  -0.3969780   0.9626204   0.0000000), wk =   0.0087464
        k(  115) = (  -0.3969780   0.8709423   0.0278630), wk =   0.0087464
        k(  116) = (  -0.3969780   0.7792641   0.0557260), wk =   0.0087464
        k(  117) = (  -0.3969780   0.6875860   0.0835889), wk =   0.0087464
        k(  118) = (  -0.3969780   0.5959079   0.1114519), wk =   0.0087464
        k(  119) = (  -0.3969780   0.5042297   0.1393149), wk =   0.0087464
        k(  120) = (  -0.3969780   0.4125516   0.1671779), wk =   0.0087464
        k(  121) = (   0.6351647   0.3667125  -0.3622187), wk =   0.0043732
        k(  122) = (   0.6351647   0.2750344  -0.3343558), wk =   0.0087464
        k(  123) = (   0.6351647   0.1833563  -0.3064928), wk =   0.0087464
        k(  124) = (   0.6351647   0.0916781  -0.2786298), wk =   0.0087464
        k(  125) = (   0.6351647   0.0000000  -0.2507668), wk =   0.0087464
        k(  126) = (   0.6351647  -0.0916781  -0.2229038), wk =   0.0087464
        k(  127) = (   0.6351647  -0.1833563  -0.1950409), wk =   0.0043732
        k(  128) = (   0.5557691   0.3208735  -0.3064928), wk =   0.0043732
        k(  129) = (   0.5557691   0.2291953  -0.2786298), wk =   0.0087464
        k(  130) = (   0.5557691   0.1375172  -0.2507668), wk =   0.0087464
        k(  131) = (   0.5557691   0.0458391  -0.2229038), wk =   0.0087464
        k(  132) = (   0.5557691  -0.0458391  -0.1950409), wk =   0.0087464
        k(  133) = (   0.4763735   0.2750344  -0.2507668), wk =   0.0043732
        k(  134) = (   0.4763735   0.1833563  -0.2229038), wk =   0.0087464
        k(  135) = (   0.4763735   0.0916781  -0.1950409), wk =   0.0087464
        k(  136) = (   0.4763735   0.0000000  -0.1671779), wk =   0.0087464
        k(  137) = (   0.3969780   0.2291953  -0.1950409), wk =   0.0043732
        k(  138) = (   0.3969780   0.1375172  -0.1671779), wk =   0.0087464
        k(  139) = (   0.3969780   0.0458391  -0.1393149), wk =   0.0087464
        k(  140) = (   0.3175824   0.1833563  -0.1393149), wk =   0.0043732
        k(  141) = (   0.3175824   0.0916781  -0.1114519), wk =   0.0087464
        k(  142) = (   0.2381868   0.1375172  -0.0835889), wk =   0.0043732
        k(  143) = (   0.0000000   0.0000000   0.1671779), wk =   0.0014577
        k(  144) = (   0.0000000  -0.0916781   0.1950409), wk =   0.0043732
        k(  145) = (   0.0000000  -0.1833563   0.2229038), wk =   0.0043732
        k(  146) = (   0.0000000  -0.2750344   0.2507668), wk =   0.0043732
        k(  147) = (   0.0000000  -0.3667125   0.2786298), wk =   0.0043732
        k(  148) = (   0.0000000   0.8251032  -0.0835889), wk =   0.0043732
        k(  149) = (   0.0000000   0.7334251  -0.0557260), wk =   0.0043732
        k(  150) = (   0.0000000   0.6417469  -0.0278630), wk =   0.0043732
        k(  151) = (   0.0000000   0.5500688   0.0000000), wk =   0.0043732
        k(  152) = (   0.0000000   0.4583907   0.0278630), wk =   0.0043732
        k(  153) = (   0.0000000   0.3667125   0.0557260), wk =   0.0043732
        k(  154) = (  -0.0793956  -0.0458391   0.2229038), wk =   0.0043732
        k(  155) = (  -0.0793956  -0.1375172   0.2507668), wk =   0.0087464
        k(  156) = (  -0.0793956  -0.2291953   0.2786298), wk =   0.0087464
        k(  157) = (  -0.0793956  -0.3208735   0.3064928), wk =   0.0087464
        k(  158) = (  -0.0793956   0.8709423  -0.0557260), wk =   0.0087464
        k(  159) = (  -0.0793956   0.7792641  -0.0278630), wk =   0.0087464
        k(  160) = (  -0.0793956   0.6875860   0.0000000), wk =   0.0087464
        k(  161) = (  -0.0793956   0.5959079   0.0278630), wk =   0.0087464
        k(  162) = (  -0.0793956   0.5042297   0.0557260), wk =   0.0087464
        k(  163) = (  -0.0793956   0.4125516   0.0835889), wk =   0.0087464
        k(  164) = (  -0.1587912  -0.0916781   0.2786298), wk =   0.0043732
        k(  165) = (  -0.1587912  -0.1833563   0.3064928), wk =   0.0087464
        k(  166) = (  -0.1587912  -0.2750344   0.3343558), wk =   0.0087464
        k(  167) = (  -0.1587912   0.9167813  -0.0278630), wk =   0.0087464
        k(  168) = (  -0.1587912   0.8251032   0.0000000), wk =   0.0087464
        k(  169) = (  -0.1587912   0.7334251   0.0278630), wk =   0.0087464
        k(  170) = (  -0.1587912   0.6417469   0.0557260), wk =   0.0087464
        k(  171) = (  -0.1587912   0.5500688   0.0835889), wk =   0.0087464
        k(  172) = (  -0.1587912   0.4583907   0.1114519), wk =   0.0087464
        k(  173) = (  -0.2381868  -0.1375172   0.3343558), wk =   0.0043732
        k(  174) = (  -0.2381868  -0.2291953   0.3622187), wk =   0.0087464
        k(  175) = (  -0.2381868   0.9626204   0.0000000), wk =   0.0087464
        k(  176) = (  -0.2381868   0.8709423   0.0278630), wk =   0.0087464
        k(  177) = (  -0.2381868   0.7792641   0.0557260), wk =   0.0087464
        k(  178) = (  -0.2381868   0.6875860   0.0835889), wk =   0.0087464
        k(  179) = (  -0.2381868   0.5959079   0.1114519), wk =   0.0087464
        k(  180) = (  -0.2381868   0.5042297   0.1393149), wk =   0.0087464
        k(  181) = (  -0.3175824  -0.1833563   0.3900817), wk =   0.0043732
        k(  182) = (  -0.3175824   1.0084595   0.0278630), wk =   0.0087464
        k(  183) = (  -0.3175824   0.9167813   0.0557260), wk =   0.0087464
        k(  184) = (  -0.3175824   0.8251032   0.0835889), wk =   0.0087464
        k(  185) = (  -0.3175824   0.7334251   0.1114519), wk =   0.0087464
        k(  186) = (  -0.3175824   0.6417469   0.1393149), wk =   0.0087464
        k(  187) = (  -0.3175824   0.5500688   0.1671779), wk =   0.0087464
        k(  188) = (   0.7145603   0.4125516  -0.3343558), wk =   0.0043732
        k(  189) = (   0.7145603   0.3208735  -0.3064928), wk =   0.0087464
        k(  190) = (   0.7145603   0.2291953  -0.2786298), wk =   0.0087464
        k(  191) = (   0.7145603   0.1375172  -0.2507668), wk =   0.0087464
        k(  192) = (   0.7145603   0.0458391  -0.2229038), wk =   0.0087464
        k(  193) = (   0.7145603  -0.0458391  -0.1950409), wk =   0.0043732
        k(  194) = (   0.6351647   0.3667125  -0.2786298), wk =   0.0043732
        k(  195) = (   0.6351647   0.2750344  -0.2507668), wk =   0.0087464
        k(  196) = (   0.6351647   0.1833563  -0.2229038), wk =   0.0087464
        k(  197) = (   0.6351647   0.0916781  -0.1950409), wk =   0.0087464
        k(  198) = (   0.5557691   0.3208735  -0.2229038), wk =   0.0043732
        k(  199) = (   0.5557691   0.2291953  -0.1950409), wk =   0.0087464
        k(  200) = (   0.5557691   0.1375172  -0.1671779), wk =   0.0087464
        k(  201) = (   0.4763735   0.2750344  -0.1671779), wk =   0.0043732
        k(  202) = (   0.4763735   0.1833563  -0.1393149), wk =   0.0087464
        k(  203) = (   0.3969780   0.2291953  -0.1114519), wk =   0.0043732
        k(  204) = (   0.0000000   0.0000000   0.2507668), wk =   0.0014577
        k(  205) = (   0.0000000  -0.0916781   0.2786298), wk =   0.0043732
        k(  206) = (   0.0000000  -0.1833563   0.3064928), wk =   0.0043732
        k(  207) = (   0.0000000  -0.2750344   0.3343558), wk =   0.0043732
        k(  208) = (   0.0000000   0.9167813  -0.0278630), wk =   0.0043732
        k(  209) = (   0.0000000   0.8251032   0.0000000), wk =   0.0043732
        k(  210) = (   0.0000000   0.7334251   0.0278630), wk =   0.0043732
        k(  211) = (   0.0000000   0.6417469   0.0557260), wk =   0.0043732
        k(  212) = (   0.0000000   0.5500688   0.0835889), wk =   0.0043732
        k(  213) = (  -0.0793956  -0.0458391   0.3064928), wk =   0.0043732
        k(  214) = (  -0.0793956  -0.1375172   0.3343558), wk =   0.0087464
        k(  215) = (  -0.0793956  -0.2291953   0.3622187), wk =   0.0087464
        k(  216) = (  -0.0793956   0.9626204   0.0000000), wk =   0.0087464
        k(  217) = (  -0.0793956   0.8709423   0.0278630), wk =   0.0087464
        k(  218) = (  -0.0793956   0.7792641   0.0557260), wk =   0.0087464
        k(  219) = (  -0.0793956   0.6875860   0.0835889), wk =   0.0087464
        k(  220) = (  -0.0793956   0.5959079   0.1114519), wk =   0.0087464
        k(  221) = (  -0.1587912  -0.0916781   0.3622187), wk =   0.0043732
        k(  222) = (  -0.1587912  -0.1833563   0.3900817), wk =   0.0087464
        k(  223) = (  -0.1587912   1.0084595   0.0278630), wk =   0.0087464
        k(  224) = (  -0.1587912   0.9167813   0.0557260), wk =   0.0087464
        k(  225) = (  -0.1587912   0.8251032   0.0835889), wk =   0.0087464
        k(  226) = (  -0.1587912   0.7334251   0.1114519), wk =   0.0087464
        k(  227) = (  -0.1587912   0.6417469   0.1393149), wk =   0.0087464
        k(  228) = (  -0.2381868  -0.1375172   0.4179447), wk =   0.0043732
        k(  229) = (  -0.2381868   1.0542985   0.0557260), wk =   0.0087464
        k(  230) = (  -0.2381868   0.9626204   0.0835889), wk =   0.0087464
        k(  231) = (  -0.2381868   0.8709423   0.1114519), wk =   0.0087464
        k(  232) = (  -0.2381868   0.7792641   0.1393149), wk =   0.0087464
        k(  233) = (  -0.2381868   0.6875860   0.1671779), wk =   0.0087464
        k(  234) = (   0.7939559   0.4583907  -0.3064928), wk =   0.0043732
        k(  235) = (   0.7939559   0.3667125  -0.2786298), wk =   0.0087464
        k(  236) = (   0.7939559   0.2750344  -0.2507668), wk =   0.0087464
        k(  237) = (   0.7939559   0.1833563  -0.2229038), wk =   0.0087464
        k(  238) = (   0.7939559   0.0916781  -0.1950409), wk =   0.0043732
        k(  239) = (   0.7145603   0.4125516  -0.2507668), wk =   0.0043732
        k(  240) = (   0.7145603   0.3208735  -0.2229038), wk =   0.0087464
        k(  241) = (   0.7145603   0.2291953  -0.1950409), wk =   0.0087464
        k(  242) = (   0.6351647   0.3667125  -0.1950409), wk =   0.0043732
        k(  243) = (   0.6351647   0.2750344  -0.1671779), wk =   0.0087464
        k(  244) = (   0.5557691   0.3208735  -0.1393149), wk =   0.0043732
        k(  245) = (   0.0000000   0.0000000   0.3343558), wk =   0.0014577
        k(  246) = (   0.0000000  -0.0916781   0.3622187), wk =   0.0043732
        k(  247) = (   0.0000000  -0.1833563   0.3900817), wk =   0.0043732
        k(  248) = (   0.0000000   1.0084595   0.0278630), wk =   0.0043732
        k(  249) = (   0.0000000   0.9167813   0.0557260), wk =   0.0043732
        k(  250) = (   0.0000000   0.8251032   0.0835889), wk =   0.0043732
        k(  251) = (   0.0000000   0.7334251   0.1114519), wk =   0.0043732
        k(  252) = (  -0.0793956  -0.0458391   0.3900817), wk =   0.0043732
        k(  253) = (  -0.0793956  -0.1375172   0.4179447), wk =   0.0087464
        k(  254) = (  -0.0793956   1.0542985   0.0557260), wk =   0.0087464
        k(  255) = (  -0.0793956   0.9626204   0.0835889), wk =   0.0087464
        k(  256) = (  -0.0793956   0.8709423   0.1114519), wk =   0.0087464
        k(  257) = (  -0.0793956   0.7792641   0.1393149), wk =   0.0087464
        k(  258) = (  -0.1587912  -0.0916781   0.4458077), wk =   0.0043732
        k(  259) = (  -0.1587912   1.1001376   0.0835889), wk =   0.0087464
        k(  260) = (  -0.1587912   1.0084595   0.1114519), wk =   0.0087464
        k(  261) = (  -0.1587912   0.9167813   0.1393149), wk =   0.0087464
        k(  262) = (  -0.1587912   0.8251032   0.1671779), wk =   0.0087464
        k(  263) = (   0.8733515   0.5042297  -0.2786298), wk =   0.0043732
        k(  264) = (   0.8733515   0.4125516  -0.2507668), wk =   0.0087464
        k(  265) = (   0.8733515   0.3208735  -0.2229038), wk =   0.0087464
        k(  266) = (   0.8733515   0.2291953  -0.1950409), wk =   0.0043732
        k(  267) = (   0.7939559   0.4583907  -0.2229038), wk =   0.0043732
        k(  268) = (   0.7939559   0.3667125  -0.1950409), wk =   0.0087464
        k(  269) = (   0.7145603   0.4125516  -0.1671779), wk =   0.0043732
        k(  270) = (   0.0000000   0.0000000   0.4179447), wk =   0.0014577
        k(  271) = (   0.0000000  -0.0916781   0.4458077), wk =   0.0043732
        k(  272) = (   0.0000000   1.1001376   0.0835889), wk =   0.0043732
        k(  273) = (   0.0000000   1.0084595   0.1114519), wk =   0.0043732
        k(  274) = (   0.0000000   0.9167813   0.1393149), wk =   0.0043732
        k(  275) = (  -0.0793956  -0.0458391   0.4736707), wk =   0.0043732
        k(  276) = (  -0.0793956   1.1459767   0.1114519), wk =   0.0087464
        k(  277) = (  -0.0793956   1.0542985   0.1393149), wk =   0.0087464
        k(  278) = (  -0.0793956   0.9626204   0.1671779), wk =   0.0087464
        k(  279) = (   0.9527471   0.5500688  -0.2507668), wk =   0.0043732
        k(  280) = (   0.9527471   0.4583907  -0.2229038), wk =   0.0087464
        k(  281) = (   0.9527471   0.3667125  -0.1950409), wk =   0.0043732
        k(  282) = (   0.8733515   0.5042297  -0.1950409), wk =   0.0043732
        k(  283) = (   0.0000000   0.0000000   0.5015336), wk =   0.0014577
        k(  284) = (   0.0000000   1.1918157   0.1393149), wk =   0.0043732
        k(  285) = (   0.0000000   1.1001376   0.1671779), wk =   0.0043732
        k(  286) = (   1.0321427   0.5959079  -0.2229038), wk =   0.0043732
        k(  287) = (   1.0321427   0.5042297  -0.1950409), wk =   0.0043732
        k(  288) = (   0.0000000   0.0000000  -0.5851226), wk =   0.0007289

                       cryst. coord.
        k(    1) = (   0.0000000   0.0000000   0.0000000), wk =   0.0007289
        k(    2) = (   0.0000000   0.0000000   0.0714286), wk =   0.0043732
        k(    3) = (   0.0000000   0.0000000   0.1428571), wk =   0.0043732
        k(    4) = (   0.0000000   0.0000000   0.2142857), wk =   0.0043732
        k(    5) = (   0.0000000   0.0000000   0.2857143), wk =   0.0043732
        k(    6) = (   0.0000000   0.0000000   0.3571429), wk =   0.0043732
        k(    7) = (   0.0000000   0.0000000   0.4285714), wk =   0.0043732
        k(    8) = (   0.0000000   0.0000000  -0.5000000), wk =   0.0021866
        k(    9) = (   0.0000000   0.0714286   0.0714286), wk =   0.0043732
        k(   10) = (   0.0000000   0.0714286   0.1428571), wk =   0.0087464
        k(   11) = (  -0.0000000   0.0714286   0.2142857), wk =   0.0087464
        k(   12) = (   0.0000000   0.0714286   0.2857143), wk =   0.0087464
        k(   13) = (   0.0000000   0.0714286   0.3571429), wk =   0.0087464
        k(   14) = (   0.0000000   0.0714286   0.4285714), wk =   0.0087464
        k(   15) = (   0.0000000   0.0714286  -0.5000000), wk =   0.0087464
        k(   16) = (   0.0000000   0.0714286  -0.4285714), wk =   0.0087464
        k(   17) = (   0.0000000   0.0714286  -0.3571429), wk =   0.0087464
        k(   18) = (   0.0000000   0.0714286  -0.2857143), wk =   0.0087464
        k(   19) = (   0.0000000   0.0714286  -0.2142857), wk =   0.0087464
        k(   20) = (   0.0000000   0.0714286  -0.1428571), wk =   0.0087464
        k(   21) = (   0.0000000   0.0714286  -0.0714286), wk =   0.0043732
        k(   22) = (   0.0000000   0.1428571   0.1428571), wk =   0.0043732
        k(   23) = (  -0.0000000   0.1428571   0.2142857), wk =   0.0087464
        k(   24) = (   0.0000000   0.1428571   0.2857143), wk =   0.0087464
        k(   25) = (   0.0000000   0.1428571   0.3571429), wk =   0.0087464
        k(   26) = (  -0.0000000   0.1428571   0.4285714), wk =   0.0087464
        k(   27) = (   0.0000000   0.1428571  -0.5000000), wk =   0.0087464
        k(   28) = (   0.0000000   0.1428571  -0.4285714), wk =   0.0087464
        k(   29) = (   0.0000000   0.1428571  -0.3571429), wk =   0.0087464
        k(   30) = (   0.0000000   0.1428571  -0.2857143), wk =   0.0087464
        k(   31) = (   0.0000000   0.1428571  -0.2142857), wk =   0.0087464
        k(   32) = (  -0.0000000   0.1428571  -0.1428571), wk =   0.0043732
        k(   33) = (   0.0000000   0.2142857   0.2142857), wk =   0.0043732
        k(   34) = (   0.0000000   0.2142857   0.2857143), wk =   0.0087464
        k(   35) = (   0.0000000   0.2142857   0.3571429), wk =   0.0087464
        k(   36) = (  -0.0000000   0.2142857   0.4285714), wk =   0.0087464
        k(   37) = (   0.0000000   0.2142857  -0.5000000), wk =   0.0087464
        k(   38) = (   0.0000000   0.2142857  -0.4285714), wk =   0.0087464
        k(   39) = (  -0.0000000   0.2142857  -0.3571429), wk =   0.0087464
        k(   40) = (   0.0000000   0.2142857  -0.2857143), wk =   0.0087464
        k(   41) = (   0.0000000   0.2142857  -0.2142857), wk =   0.0043732
        k(   42) = (   0.0000000   0.2857143   0.2857143), wk =   0.0043732
        k(   43) = (   0.0000000   0.2857143   0.3571429), wk =   0.0087464
        k(   44) = (  -0.0000000   0.2857143   0.4285714), wk =   0.0087464
        k(   45) = (   0.0000000   0.2857143  -0.5000000), wk =   0.0087464
        k(   46) = (   0.0000000   0.2857143  -0.4285714), wk =   0.0087464
        k(   47) = (  -0.0000000   0.2857143  -0.3571429), wk =   0.0087464
        k(   48) = (   0.0000000   0.2857143  -0.2857143), wk =   0.0043732
        k(   49) = (   0.0000000   0.3571429   0.3571429), wk =   0.0043732
        k(   50) = (   0.0000000   0.3571429   0.4285714), wk =   0.0087464
        k(   51) = (  -0.0000000   0.3571429  -0.5000000), wk =   0.0087464
        k(   52) = (   0.0000000   0.3571429  -0.4285714), wk =   0.0087464
        k(   53) = (  -0.0000000   0.3571429  -0.3571429), wk =   0.0043732
        k(   54) = (   0.0000000   0.4285714   0.4285714), wk =   0.0043732
        k(   55) = (   0.0000000   0.4285714  -0.5000000), wk =   0.0087464
        k(   56) = (   0.0000000   0.4285714  -0.4285714), wk =   0.0043732
        k(   57) = (   0.0000000  -0.5000000  -0.5000000), wk =   0.0021866
        k(   58) = (   0.0714286   0.0714286   0.0714286), wk =   0.0014577
        k(   59) = (   0.0714286   0.0714286   0.1428571), wk =   0.0043732
        k(   60) = (   0.0714286   0.0714286   0.2142857), wk =   0.0043732
        k(   61) = (   0.0714286   0.0714286   0.2857143), wk =   0.0043732
        k(   62) = (   0.0714286   0.0714286   0.3571429), wk =   0.0043732
        k(   63) = (   0.0714286   0.0714286   0.4285714), wk =   0.0043732
        k(   64) = (   0.0714286   0.0714286  -0.5000000), wk =   0.0043732
        k(   65) = (   0.0714286   0.0714286  -0.4285714), wk =   0.0043732
        k(   66) = (   0.0714286   0.0714286  -0.3571429), wk =   0.0043732
        k(   67) = (   0.0714286   0.0714286  -0.2857143), wk =   0.0043732
        k(   68) = (   0.0714286   0.0714286  -0.2142857), wk =   0.0043732
        k(   69) = (   0.0714286   0.0714286  -0.1428571), wk =   0.0043732
        k(   70) = (   0.0714286   0.0714286  -0.0714286), wk =   0.0043732
        k(   71) = (   0.0714286   0.1428571   0.1428571), wk =   0.0043732
        k(   72) = (   0.0714286   0.1428571   0.2142857), wk =   0.0087464
        k(   73) = (   0.0714286   0.1428571   0.2857143), wk =   0.0087464
        k(   74) = (   0.0714286   0.1428571   0.3571429), wk =   0.0087464
        k(   75) = (   0.0714286   0.1428571   0.4285714), wk =   0.0087464
        k(   76) = (   0.0714286   0.1428571  -0.5000000), wk =   0.0087464
        k(   77) = (   0.0714286   0.1428571  -0.4285714), wk =   0.0087464
        k(   78) = (   0.0714286   0.1428571  -0.3571429), wk =   0.0087464
        k(   79) = (   0.0714286   0.1428571  -0.2857143), wk =   0.0087464
        k(   80) = (   0.0714286   0.1428571  -0.2142857), wk =   0.0087464
        k(   81) = (   0.0714286   0.1428571  -0.1428571), wk =   0.0087464
        k(   82) = (   0.0714286   0.1428571  -0.0714286), wk =   0.0087464
        k(   83) = (   0.0714286   0.2142857   0.2142857), wk =   0.0043732
        k(   84) = (   0.0714286   0.2142857   0.2857143), wk =   0.0087464
        k(   85) = (   0.0714286   0.2142857   0.3571429), wk =   0.0087464
        k(   86) = (   0.0714286   0.2142857   0.4285714), wk =   0.0087464
        k(   87) = (   0.0714286   0.2142857  -0.5000000), wk =   0.0087464
        k(   88) = (   0.0714286   0.2142857  -0.4285714), wk =   0.0087464
        k(   89) = (   0.0714286   0.2142857  -0.3571429), wk =   0.0087464
        k(   90) = (   0.0714286   0.2142857  -0.2857143), wk =   0.0087464
        k(   91) = (   0.0714286   0.2142857  -0.2142857), wk =   0.0087464
        k(   92) = (   0.0714286   0.2142857  -0.1428571), wk =   0.0087464
        k(   93) = (   0.0714286   0.2142857  -0.0714286), wk =   0.0087464
        k(   94) = (   0.0714286   0.2857143   0.2857143), wk =   0.0043732
        k(   95) = (   0.0714286   0.2857143   0.3571429), wk =   0.0087464
        k(   96) = (   0.0714286   0.2857143   0.4285714), wk =   0.0087464
        k(   97) = (   0.0714286   0.2857143  -0.5000000), wk =   0.0087464
        k(   98) = (   0.0714286   0.2857143  -0.4285714), wk =   0.0087464
        k(   99) = (   0.0714286   0.2857143  -0.3571429), wk =   0.0087464
        k(  100) = (   0.0714286   0.2857143  -0.2857143), wk =   0.0087464
        k(  101) = (   0.0714286   0.2857143  -0.2142857), wk =   0.0087464
        k(  102) = (   0.0714286   0.2857143  -0.1428571), wk =   0.0087464
        k(  103) = (   0.0714286   0.2857143  -0.0714286), wk =   0.0087464
        k(  104) = (   0.0714286   0.3571429   0.3571429), wk =   0.0043732
        k(  105) = (   0.0714286   0.3571429   0.4285714), wk =   0.0087464
        k(  106) = (   0.0714286   0.3571429  -0.5000000), wk =   0.0087464
        k(  107) = (   0.0714286   0.3571429  -0.4285714), wk =   0.0087464
        k(  108) = (   0.0714286   0.3571429  -0.3571429), wk =   0.0087464
        k(  109) = (   0.0714286   0.3571429  -0.2857143), wk =   0.0087464
        k(  110) = (   0.0714286   0.3571429  -0.2142857), wk =   0.0087464
        k(  111) = (   0.0714286   0.3571429  -0.1428571), wk =   0.0087464
        k(  112) = (   0.0714286   0.3571429  -0.0714286), wk =   0.0087464
        k(  113) = (   0.0714286   0.4285714   0.4285714), wk =   0.0043732
        k(  114) = (   0.0714286   0.4285714  -0.5000000), wk =   0.0087464
        k(  115) = (   0.0714286   0.4285714  -0.4285714), wk =   0.0087464
        k(  116) = (   0.0714286   0.4285714  -0.3571429), wk =   0.0087464
        k(  117) = (   0.0714286   0.4285714  -0.2857143), wk =   0.0087464
        k(  118) = (   0.0714286   0.4285714  -0.2142857), wk =   0.0087464
        k(  119) = (   0.0714286   0.4285714  -0.1428571), wk =   0.0087464
        k(  120) = (   0.0714286   0.4285714  -0.0714286), wk =   0.0087464
        k(  121) = (   0.0714286  -0.5000000  -0.5000000), wk =   0.0043732
        k(  122) = (   0.0714286  -0.5000000  -0.4285714), wk =   0.0087464
        k(  123) = (   0.0714286  -0.5000000  -0.3571429), wk =   0.0087464
        k(  124) = (   0.0714286  -0.5000000  -0.2857143), wk =   0.0087464
        k(  125) = (   0.0714286  -0.5000000  -0.2142857), wk =   0.0087464
        k(  126) = (   0.0714286  -0.5000000  -0.1428571), wk =   0.0087464
        k(  127) = (   0.0714286  -0.5000000  -0.0714286), wk =   0.0043732
        k(  128) = (   0.0714286  -0.4285714  -0.4285714), wk =   0.0043732
        k(  129) = (   0.0714286  -0.4285714  -0.3571429), wk =   0.0087464
        k(  130) = (   0.0714286  -0.4285714  -0.2857143), wk =   0.0087464
        k(  131) = (   0.0714286  -0.4285714  -0.2142857), wk =   0.0087464
        k(  132) = (   0.0714286  -0.4285714  -0.1428571), wk =   0.0087464
        k(  133) = (   0.0714286  -0.3571429  -0.3571429), wk =   0.0043732
        k(  134) = (   0.0714286  -0.3571429  -0.2857143), wk =   0.0087464
        k(  135) = (   0.0714286  -0.3571429  -0.2142857), wk =   0.0087464
        k(  136) = (   0.0714286  -0.3571429  -0.1428571), wk =   0.0087464
        k(  137) = (   0.0714286  -0.2857143  -0.2857143), wk =   0.0043732
        k(  138) = (   0.0714286  -0.2857143  -0.2142857), wk =   0.0087464
        k(  139) = (   0.0714286  -0.2857143  -0.1428571), wk =   0.0087464
        k(  140) = (   0.0714286  -0.2142857  -0.2142857), wk =   0.0043732
        k(  141) = (   0.0714286  -0.2142857  -0.1428571), wk =   0.0087464
        k(  142) = (   0.0714286  -0.1428571  -0.1428571), wk =   0.0043732
        k(  143) = (   0.1428571   0.1428571   0.1428571), wk =   0.0014577
        k(  144) = (   0.1428571   0.1428571   0.2142857), wk =   0.0043732
        k(  145) = (   0.1428571   0.1428571   0.2857143), wk =   0.0043732
        k(  146) = (   0.1428571   0.1428571   0.3571429), wk =   0.0043732
        k(  147) = (   0.1428571   0.1428571   0.4285714), wk =   0.0043732
        k(  148) = (   0.1428571   0.1428571  -0.5000000), wk =   0.0043732
        k(  149) = (   0.1428571   0.1428571  -0.4285714), wk =   0.0043732
        k(  150) = (   0.1428571   0.1428571  -0.3571429), wk =   0.0043732
        k(  151) = (   0.1428571   0.1428571  -0.2857143), wk =   0.0043732
        k(  152) = (   0.1428571   0.1428571  -0.2142857), wk =   0.0043732
        k(  153) = (   0.1428571   0.1428571  -0.1428571), wk =   0.0043732
        k(  154) = (   0.1428571   0.2142857   0.2142857), wk =   0.0043732
        k(  155) = (   0.1428571   0.2142857   0.2857143), wk =   0.0087464
        k(  156) = (   0.1428571   0.2142857   0.3571429), wk =   0.0087464
        k(  157) = (   0.1428571   0.2142857   0.4285714), wk =   0.0087464
        k(  158) = (   0.1428571   0.2142857  -0.5000000), wk =   0.0087464
        k(  159) = (   0.1428571   0.2142857  -0.4285714), wk =   0.0087464
        k(  160) = (   0.1428571   0.2142857  -0.3571429), wk =   0.0087464
        k(  161) = (   0.1428571   0.2142857  -0.2857143), wk =   0.0087464
        k(  162) = (   0.1428571   0.2142857  -0.2142857), wk =   0.0087464
        k(  163) = (   0.1428571   0.2142857  -0.1428571), wk =   0.0087464
        k(  164) = (   0.1428571   0.2857143   0.2857143), wk =   0.0043732
        k(  165) = (   0.1428571   0.2857143   0.3571429), wk =   0.0087464
        k(  166) = (   0.1428571   0.2857143   0.4285714), wk =   0.0087464
        k(  167) = (   0.1428571   0.2857143  -0.5000000), wk =   0.0087464
        k(  168) = (   0.1428571   0.2857143  -0.4285714), wk =   0.0087464
        k(  169) = (   0.1428571   0.2857143  -0.3571429), wk =   0.0087464
        k(  170) = (   0.1428571   0.2857143  -0.2857143), wk =   0.0087464
        k(  171) = (   0.1428571   0.2857143  -0.2142857), wk =   0.0087464
        k(  172) = (   0.1428571   0.2857143  -0.1428571), wk =   0.0087464
        k(  173) = (   0.1428571   0.3571429   0.3571429), wk =   0.0043732
        k(  174) = (   0.1428571   0.3571429   0.4285714), wk =   0.0087464
        k(  175) = (   0.1428571   0.3571429  -0.5000000), wk =   0.0087464
        k(  176) = (   0.1428571   0.3571429  -0.4285714), wk =   0.0087464
        k(  177) = (   0.1428571   0.3571429  -0.3571429), wk =   0.0087464
        k(  178) = (   0.1428571   0.3571429  -0.2857143), wk =   0.0087464
        k(  179) = (   0.1428571   0.3571429  -0.2142857), wk =   0.0087464
        k(  180) = (   0.1428571   0.3571429  -0.1428571), wk =   0.0087464
        k(  181) = (   0.1428571   0.4285714   0.4285714), wk =   0.0043732
        k(  182) = (   0.1428571   0.4285714  -0.5000000), wk =   0.0087464
        k(  183) = (   0.1428571   0.4285714  -0.4285714), wk =   0.0087464
        k(  184) = (   0.1428571   0.4285714  -0.3571429), wk =   0.0087464
        k(  185) = (   0.1428571   0.4285714  -0.2857143), wk =   0.0087464
        k(  186) = (   0.1428571   0.4285714  -0.2142857), wk =   0.0087464
        k(  187) = (   0.1428571   0.4285714  -0.1428571), wk =   0.0087464
        k(  188) = (   0.1428571  -0.5000000  -0.5000000), wk =   0.0043732
        k(  189) = (   0.1428571  -0.5000000  -0.4285714), wk =   0.0087464
        k(  190) = (   0.1428571  -0.5000000  -0.3571429), wk =   0.0087464
        k(  191) = (   0.1428571  -0.5000000  -0.2857143), wk =   0.0087464
        k(  192) = (   0.1428571  -0.5000000  -0.2142857), wk =   0.0087464
        k(  193) = (   0.1428571  -0.5000000  -0.1428571), wk =   0.0043732
        k(  194) = (   0.1428571  -0.4285714  -0.4285714), wk =   0.0043732
        k(  195) = (   0.1428571  -0.4285714  -0.3571429), wk =   0.0087464
        k(  196) = (   0.1428571  -0.4285714  -0.2857143), wk =   0.0087464
        k(  197) = (   0.1428571  -0.4285714  -0.2142857), wk =   0.0087464
        k(  198) = (   0.1428571  -0.3571429  -0.3571429), wk =   0.0043732
        k(  199) = (   0.1428571  -0.3571429  -0.2857143), wk =   0.0087464
        k(  200) = (   0.1428571  -0.3571429  -0.2142857), wk =   0.0087464
        k(  201) = (   0.1428571  -0.2857143  -0.2857143), wk =   0.0043732
        k(  202) = (   0.1428571  -0.2857143  -0.2142857), wk =   0.0087464
        k(  203) = (   0.1428571  -0.2142857  -0.2142857), wk =   0.0043732
        k(  204) = (   0.2142857   0.2142857   0.2142857), wk =   0.0014577
        k(  205) = (   0.2142857   0.2142857   0.2857143), wk =   0.0043732
        k(  206) = (   0.2142857   0.2142857   0.3571429), wk =   0.0043732
        k(  207) = (   0.2142857   0.2142857   0.4285714), wk =   0.0043732
        k(  208) = (   0.2142857   0.2142857  -0.5000000), wk =   0.0043732
        k(  209) = (   0.2142857   0.2142857  -0.4285714), wk =   0.0043732
        k(  210) = (   0.2142857   0.2142857  -0.3571429), wk =   0.0043732
        k(  211) = (   0.2142857   0.2142857  -0.2857143), wk =   0.0043732
        k(  212) = (   0.2142857   0.2142857  -0.2142857), wk =   0.0043732
        k(  213) = (   0.2142857   0.2857143   0.2857143), wk =   0.0043732
        k(  214) = (   0.2142857   0.2857143   0.3571429), wk =   0.0087464
        k(  215) = (   0.2142857   0.2857143   0.4285714), wk =   0.0087464
        k(  216) = (   0.2142857   0.2857143  -0.5000000), wk =   0.0087464
        k(  217) = (   0.2142857   0.2857143  -0.4285714), wk =   0.0087464
        k(  218) = (   0.2142857   0.2857143  -0.3571429), wk =   0.0087464
        k(  219) = (   0.2142857   0.2857143  -0.2857143), wk =   0.0087464
        k(  220) = (   0.2142857   0.2857143  -0.2142857), wk =   0.0087464
        k(  221) = (   0.2142857   0.3571429   0.3571429), wk =   0.0043732
        k(  222) = (   0.2142857   0.3571429   0.4285714), wk =   0.0087464
        k(  223) = (   0.2142857   0.3571429  -0.5000000), wk =   0.0087464
        k(  224) = (   0.2142857   0.3571429  -0.4285714), wk =   0.0087464
        k(  225) = (   0.2142857   0.3571429  -0.3571429), wk =   0.0087464
        k(  226) = (   0.2142857   0.3571429  -0.2857143), wk =   0.0087464
        k(  227) = (   0.2142857   0.3571429  -0.2142857), wk =   0.0087464
        k(  228) = (   0.2142857   0.4285714   0.4285714), wk =   0.0043732
        k(  229) = (   0.2142857   0.4285714  -0.5000000), wk =   0.0087464
        k(  230) = (   0.2142857   0.4285714  -0.4285714), wk =   0.0087464
        k(  231) = (   0.2142857   0.4285714  -0.3571429), wk =   0.0087464
        k(  232) = (   0.2142857   0.4285714  -0.2857143), wk =   0.0087464
        k(  233) = (   0.2142857   0.4285714  -0.2142857), wk =   0.0087464
        k(  234) = (   0.2142857  -0.5000000  -0.5000000), wk =   0.0043732
        k(  235) = (   0.2142857  -0.5000000  -0.4285714), wk =   0.0087464
        k(  236) = (   0.2142857  -0.5000000  -0.3571429), wk =   0.0087464
        k(  237) = (   0.2142857  -0.5000000  -0.2857143), wk =   0.0087464
        k(  238) = (   0.2142857  -0.5000000  -0.2142857), wk =   0.0043732
        k(  239) = (   0.2142857  -0.4285714  -0.4285714), wk =   0.0043732
        k(  240) = (   0.2142857  -0.4285714  -0.3571429), wk =   0.0087464
        k(  241) = (   0.2142857  -0.4285714  -0.2857143), wk =   0.0087464
        k(  242) = (   0.2142857  -0.3571429  -0.3571429), wk =   0.0043732
        k(  243) = (   0.2142857  -0.3571429  -0.2857143), wk =   0.0087464
        k(  244) = (   0.2142857  -0.2857143  -0.2857143), wk =   0.0043732
        k(  245) = (   0.2857143   0.2857143   0.2857143), wk =   0.0014577
        k(  246) = (   0.2857143   0.2857143   0.3571429), wk =   0.0043732
        k(  247) = (   0.2857143   0.2857143   0.4285714), wk =   0.0043732
        k(  248) = (   0.2857143   0.2857143  -0.5000000), wk =   0.0043732
        k(  249) = (   0.2857143   0.2857143  -0.4285714), wk =   0.0043732
        k(  250) = (   0.2857143   0.2857143  -0.3571429), wk =   0.0043732
        k(  251) = (   0.2857143   0.2857143  -0.2857143), wk =   0.0043732
        k(  252) = (   0.2857143   0.3571429   0.3571429), wk =   0.0043732
        k(  253) = (   0.2857143   0.3571429   0.4285714), wk =   0.0087464
        k(  254) = (   0.2857143   0.3571429  -0.5000000), wk =   0.0087464
        k(  255) = (   0.2857143   0.3571429  -0.4285714), wk =   0.0087464
        k(  256) = (   0.2857143   0.3571429  -0.3571429), wk =   0.0087464
        k(  257) = (   0.2857143   0.3571429  -0.2857143), wk =   0.0087464
        k(  258) = (   0.2857143   0.4285714   0.4285714), wk =   0.0043732
        k(  259) = (   0.2857143   0.4285714  -0.5000000), wk =   0.0087464
        k(  260) = (   0.2857143   0.4285714  -0.4285714), wk =   0.0087464
        k(  261) = (   0.2857143   0.4285714  -0.3571429), wk =   0.0087464
        k(  262) = (   0.2857143   0.4285714  -0.2857143), wk =   0.0087464
        k(  263) = (   0.2857143  -0.5000000  -0.5000000), wk =   0.0043732
        k(  264) = (   0.2857143  -0.5000000  -0.4285714), wk =   0.0087464
        k(  265) = (   0.2857143  -0.5000000  -0.3571429), wk =   0.0087464
        k(  266) = (   0.2857143  -0.5000000  -0.2857143), wk =   0.0043732
        k(  267) = (   0.2857143  -0.4285714  -0.4285714), wk =   0.0043732
        k(  268) = (   0.2857143  -0.4285714  -0.3571429), wk =   0.0087464
        k(  269) = (   0.2857143  -0.3571429  -0.3571429), wk =   0.0043732
        k(  270) = (   0.3571429   0.3571429   0.3571429), wk =   0.0014577
        k(  271) = (   0.3571429   0.3571429   0.4285714), wk =   0.0043732
        k(  272) = (   0.3571429   0.3571429  -0.5000000), wk =   0.0043732
        k(  273) = (   0.3571429   0.3571429  -0.4285714), wk =   0.0043732
        k(  274) = (   0.3571429   0.3571429  -0.3571429), wk =   0.0043732
        k(  275) = (   0.3571429   0.4285714   0.4285714), wk =   0.0043732
        k(  276) = (   0.3571429   0.4285714  -0.5000000), wk =   0.0087464
        k(  277) = (   0.3571429   0.4285714  -0.4285714), wk =   0.0087464
        k(  278) = (   0.3571429   0.4285714  -0.3571429), wk =   0.0087464
        k(  279) = (   0.3571429  -0.5000000  -0.5000000), wk =   0.0043732
        k(  280) = (   0.3571429  -0.5000000  -0.4285714), wk =   0.0087464
        k(  281) = (   0.3571429  -0.5000000  -0.3571429), wk =   0.0043732
        k(  282) = (   0.3571429  -0.4285714  -0.4285714), wk =   0.0043732
        k(  283) = (   0.4285714   0.4285714   0.4285714), wk =   0.0014577
        k(  284) = (   0.4285714   0.4285714  -0.5000000), wk =   0.0043732
        k(  285) = (   0.4285714   0.4285714  -0.4285714), wk =   0.0043732
        k(  286) = (   0.4285714  -0.5000000  -0.5000000), wk =   0.0043732
        k(  287) = (   0.4285714  -0.5000000  -0.4285714), wk =   0.0043732
        k(  288) = (  -0.5000000  -0.5000000  -0.5000000), wk =   0.0007289

     Dense  grid:    24277 G-vectors     FFT dimensions: (  45,  45,  45)

     Smooth grid:     8611 G-vectors     FFT dimensions: (  32,  32,  32)

     Dynamical RAM for                 wfc:       0.02 MB

     Dynamical RAM for     wfc (w. buffer):       3.54 MB

     Dynamical RAM for           str. fact:       0.06 MB

     Dynamical RAM for           local pot:       0.00 MB

     Dynamical RAM for          nlocal pot:       0.04 MB

     Dynamical RAM for                qrad:       0.49 MB

     Dynamical RAM for          rho,v,vnew:       0.56 MB

     Dynamical RAM for               rhoin:       0.19 MB

     Dynamical RAM for            rho*nmix:       0.99 MB

     Dynamical RAM for           G-vectors:       0.24 MB

     Dynamical RAM for          h,s,v(r/c):       0.06 MB

     Dynamical RAM for          <psi|beta>:       0.00 MB

     Dynamical RAM for                 psi:       0.10 MB

     Dynamical RAM for                hpsi:       0.10 MB

     Dynamical RAM for                spsi:       0.10 MB

     Dynamical RAM for      wfcinit/wfcrot:       0.05 MB

     Dynamical RAM for           addusdens:       1.42 MB

     Dynamical RAM for          addusforce:       1.48 MB

     Dynamical RAM for         addusstress:       1.56 MB

     Estimated static dynamical RAM per process >       6.85 MB

     Estimated max dynamical RAM per process >       8.41 MB

     Estimated total dynamical RAM >     100.93 MB

     Initial potential from superposition of free atoms

     starting charge    9.99953, renormalised to   10.00000
     Starting wfcs are    8 randomized atomic wfcs +    1 random wfcs

     total cpu time spent up to now is        1.3 secs

     Self-consistent Calculation

     iteration #  1     ecut=    35.00 Ry     beta= 0.40
     Davidson diagonalization with overlap
     ethr =  1.00E-02,  avg # of iterations =  4.7

     Threshold (ethr) on eigenvalues was too large:
     Diagonalizing with lowered threshold

     Davidson diagonalization with overlap
     ethr =  1.14E-04,  avg # of iterations =  2.2

     total cpu time spent up to now is        4.4 secs

     total energy              =     -36.37831431 Ry
     Harris-Foulkes estimate   =     -36.37872012 Ry
     estimated scf accuracy    <       0.01100961 Ry

     iteration #  2     ecut=    35.00 Ry     beta= 0.40
     Davidson diagonalization with overlap
     ethr =  1.10E-04,  avg # of iterations =  1.0

     total cpu time spent up to now is        5.6 secs

     total energy              =     -36.37814403 Ry
     Harris-Foulkes estimate   =     -36.37837078 Ry
     estimated scf accuracy    <       0.00379089 Ry

     iteration #  3     ecut=    35.00 Ry     beta= 0.40
     Davidson diagonalization with overlap
     ethr =  3.79E-05,  avg # of iterations =  1.0

     total cpu time spent up to now is        6.8 secs

     total energy              =     -36.37820462 Ry
     Harris-Foulkes estimate   =     -36.37820599 Ry
     estimated scf accuracy    <       0.00001121 Ry

     iteration #  4     ecut=    35.00 Ry     beta= 0.40
     Davidson diagonalization with overlap
     ethr =  1.12E-07,  avg # of iterations =  2.7

     total cpu time spent up to now is        8.4 secs

     total energy              =     -36.37820800 Ry
     Harris-Foulkes estimate   =     -36.37820779 Ry
     estimated scf accuracy    <       0.00000058 Ry

     iteration #  5     ecut=    35.00 Ry     beta= 0.40
     Davidson diagonalization with overlap
     ethr =  5.80E-09,  avg # of iterations =  1.1

     total cpu time spent up to now is        9.6 secs

     total energy              =     -36.37820808 Ry
     Harris-Foulkes estimate   =     -36.37820804 Ry
     estimated scf accuracy    <       0.00000005 Ry

     iteration #  6     ecut=    35.00 Ry     beta= 0.40
     Davidson diagonalization with overlap
     ethr =  5.43E-10,  avg # of iterations =  2.0

     total cpu time spent up to now is       10.9 secs

     total energy              =     -36.37820809 Ry
     Harris-Foulkes estimate   =     -36.37820809 Ry
     estimated scf accuracy    <       0.00000001 Ry

     iteration #  7     ecut=    35.00 Ry     beta= 0.40
     Davidson diagonalization with overlap
     ethr =  1.29E-10,  avg # of iterations =  1.0

     total cpu time spent up to now is       12.1 secs

     total energy              =     -36.37820809 Ry
     Harris-Foulkes estimate   =     -36.37820809 Ry
     estimated scf accuracy    <          2.5E-10 Ry

     iteration #  8     ecut=    35.00 Ry     beta= 0.40
     Davidson diagonalization with overlap
     ethr =  2.51E-12,  avg # of iterations =  2.0

     total cpu time spent up to now is       13.5 secs

     total energy              =     -36.37820809 Ry
     Harris-Foulkes estimate   =     -36.37820809 Ry
     estimated scf accuracy    <          4.0E-11 Ry

     iteration #  9     ecut=    35.00 Ry     beta= 0.40
     Davidson diagonalization with overlap
     ethr =  3.98E-13,  avg # of iterations =  2.0

     total cpu time spent up to now is       14.9 secs

     total energy              =     -36.37820809 Ry
     Harris-Foulkes estimate   =     -36.37820809 Ry
     estimated scf accuracy    <          9.6E-12 Ry

     iteration # 10     ecut=    35.00 Ry     beta= 0.40
     Davidson diagonalization with overlap
     ethr =  1.00E-13,  avg # of iterations =  1.1

     total cpu time spent up to now is       16.1 secs

     End of self-consistent calculation

          k = 0.0000 0.0000 0.0000 (  1093 PWs)   bands (ev):

    -7.6624   0.8078   4.5114   5.0949   5.0949   8.5742   9.7711   9.7711
    13.9621

     occupation numbers 
     1.0000   1.0000   1.0000   1.0000   1.0000   0.0000   0.0000   0.0000
     0.0000

          k = 0.0000-0.0917 0.0279 (  1082 PWs)   bands (ev):

    -7.5972   0.6127   4.5533   4.9945   5.0396   8.7366   9.6175   9.7311
    13.4489

     occupation numbers 
     1.0000   1.0000   1.0000   1.0000   1.0000   0.0000   0.0000   0.0000
     0.0000

          k = 0.0000-0.1834 0.0557 (  1079 PWs)   bands (ev):

    -7.4027   0.0716   4.4848   4.8949   4.9998   8.7925   9.3968   9.5744
    12.8358

     occupation numbers 
     1.0000   1.0000   1.0000   1.0000   1.0000   0.0000   0.0000   0.0000
     0.0000

          k = 0.0000-0.2750 0.0836 (  1074 PWs)   bands (ev):

    -7.0816  -0.7113   4.2884   4.7081   5.2540   8.3472   9.1498   9.2892
    12.9346

     occupation numbers 
     1.0000   1.0000   1.0000   1.0000   1.0000   0.0000   0.0000   0.0000
     0.0000

          k = 0.0000-0.3667 0.1115 (  1075 PWs)   bands (ev):

    -6.6403  -1.6201   4.1658   4.5246   5.5702   7.7981   8.6058   8.9546
    13.3859

     occupation numbers 
     1.0000   1.0000   1.0000   1.0000   1.0000   0.0000   0.0000   0.0000
     0.0000

          k = 0.0000-0.4584 0.1393 (  1078 PWs)   bands (ev):

    -6.0931  -2.5547   4.1335   4.3761   5.8980   7.2982   8.0087   8.6614
    13.9446

     occupation numbers 
     1.0000   1.0000   1.0000   1.0000   1.0000   0.0001   0.0000   0.0000
     0.0000

          k = 0.0000-0.5501 0.1672 (  1079 PWs)   bands (ev):

    -5.4861  -3.4134   4.1519   4.2812   6.2257   6.9052   7.5297   8.4669
    14.7687

     occupation numbers 
     1.0000   1.0000   1.0000   1.0000   1.0000   0.8423   0.0000   0.0000
     0.0000

          k = 0.0000 0.6417-0.1950 (  1088 PWs)   bands (ev):

    -5.0972  -3.8893   4.1672   4.2487   6.4724   6.6640   7.3273   8.3992
    15.8010

     occupation numbers 
     1.0000   1.0000   1.0000   1.0000   1.0000   1.0150   0.0000   0.0000
     0.0000

          k =-0.0794-0.0458 0.0557 (  1088 PWs)   bands (ev):

    -7.5840   0.5435   4.4795   4.9471   5.2174   8.7337   9.3637   9.9142
    13.3850

     occupation numbers 
     1.0000   1.0000   1.0000   1.0000   1.0000   0.0000   0.0000   0.0000
     0.0000

          k =-0.0794-0.1375 0.0836 (  1075 PWs)   bands (ev):

    -7.4412   0.1513   4.2649   4.7713   5.4557   8.6796   9.2199   9.9181
    12.9699

     occupation numbers 
     1.0000   1.0000   1.0000   1.0000   1.0000   0.0000   0.0000   0.0000
     0.0000

          k =-0.0794-0.2292 0.1115 (  1070 PWs)   bands (ev):

    -7.1710  -0.4963   4.0016   4.5517   5.7147   8.2410   9.3738   9.6733
    12.5540

     occupation numbers 
     1.0000   1.0000   1.0000   1.0000   1.0000   0.0000   0.0000   0.0000
     0.0000

          k =-0.0794-0.3209 0.1393 (  1072 PWs)   bands (ev):

    -6.7782  -1.3146   3.8293   4.3126   5.9407   7.8025   9.1684   9.2996
    12.8306

     occupation numbers 
     1.0000   1.0000   1.0000   1.0000   1.0000   0.0000   0.0000   0.0000
     0.0000

          k =-0.0794-0.4126 0.1672 (  1071 PWs)   bands (ev):

    -6.2727  -2.2106   3.7904   4.0892   6.0838   7.4688   8.5775   9.0512
    13.6768

     occupation numbers 
     1.0000   1.0000   1.0000   1.0000   1.0000   0.0000   0.0000   0.0000
     0.0000

          k =-0.0794-0.5042 0.1950 (  1074 PWs)   bands (ev):

    -5.6811  -3.0905   3.8695   3.9107   6.1201   7.2806   7.9990   8.8882
    14.7442

     occupation numbers 
     1.0000   1.0000   1.0000   1.0000   1.0000   0.0001   0.0000   0.0000
     0.0000

          k =-0.0794 0.6876-0.1672 (  1078 PWs)   bands (ev):

    -5.1308  -3.7848   3.7924   4.0295   6.0671   7.2406   7.5603   8.8601
    15.7500

     occupation numbers 
     1.0000   1.0000   1.0000   1.0000   1.0000   0.0007   0.0000   0.0000
     0.0000

          k =-0.0794 0.5959-0.1393 (  1079 PWs)   bands (ev):

    -5.2209  -3.6749   3.7497   4.2099   5.9610   7.2244   7.4531   8.9657
    14.7119

     occupation numbers 
     1.0000   1.0000   1.0000   1.0000   1.0000   0.0013   0.0000   0.0000
     0.0000

          k =-0.0794 0.5042-0.1115 (  1073 PWs)   bands (ev):

    -5.8062  -2.9063   3.7881   4.3592   5.8001   7.2589   7.7199   9.1714
    13.8524

     occupation numbers 
     1.0000   1.0000   1.0000   1.0000   1.0000   0.0004   0.0000   0.0000
     0.0000

          k =-0.0794 0.4126-0.0836 (  1075 PWs)   bands (ev):

    -6.3842  -2.0022   3.9085   4.4708   5.5688   7.5485   8.1571   9.4219
    13.2205

     occupation numbers 
     1.0000   1.0000   1.0000   1.0000   1.0000   0.0000   0.0000   0.0000
     0.0000

          k =-0.0794 0.3209-0.0557 (  1074 PWs)   bands (ev):

    -6.8680  -1.0945   4.1010   4.5837   5.2956   8.0285   8.6882   9.6291
    12.7245

     occupation numbers 
     1.0000   1.0000   1.0000   1.0000   1.0000   0.0000   0.0000   0.0000
     0.0000

          k =-0.0794 0.2292-0.0279 (  1076 PWs)   bands (ev):

    -7.2364  -0.2807   4.3338   4.7353   5.0422   8.5984   9.0938   9.7157
    12.5349

     occupation numbers 
     1.0000   1.0000   1.0000   1.0000   1.0000   0.0000   0.0000   0.0000
     0.0000

          k =-0.0794 0.1375 0.0000 (  1083 PWs)   bands (ev):

    -7.4809   0.3242   4.5213   4.9080   4.9202   8.9764   9.1789   9.8195
    12.9077

     occupation numbers 
     1.0000   1.0000   1.0000   1.0000   1.0000   0.0000   0.0000   0.0000
     0.0000

          k =-0.1588-0.0917 0.1115 (  1077 PWs)   bands (ev):

    -7.3515  -0.0438   3.9704   4.5808   5.7857   8.3559   9.1535  10.2714
    12.8931

     occupation numbers 
     1.0000   1.0000   1.0000   1.0000   1.0000   0.0000   0.0000   0.0000
     0.0000

          k =-0.1588-0.1834 0.1393 (  1076 PWs)   bands (ev):

    -7.1350  -0.4878   3.6615   4.3213   5.8649   8.1730   9.3417  10.2829
    12.5535

     occupation numbers 
     1.0000   1.0000   1.0000   1.0000   1.0000   0.0000   0.0000   0.0000
     0.0000

          k =-0.1588-0.2750 0.1672 (  1076 PWs)   bands (ev):

    -6.7956  -1.1352   3.4376   3.9819   5.7352   8.2526   9.5974   9.9479
    12.1937

     occupation numbers 
     1.0000   1.0000   1.0000   1.0000   1.0000   0.0000   0.0000   0.0000
     0.0000

          k =-0.1588-0.3667 0.1950 (  1070 PWs)   bands (ev):

    -6.3408  -1.9176   3.3225   3.6566   5.5471   8.4079   9.4106   9.6669
    12.4714

     occupation numbers 
     1.0000   1.0000   1.0000   1.0000   1.0000   0.0000   0.0000   0.0000
     0.0000

          k =-0.1588-0.4584 0.2229 (  1068 PWs)   bands (ev):

    -5.7874  -2.7509   3.1764   3.5572   5.4017   8.4196   8.8460   9.6316
    13.3925

     occupation numbers 
     1.0000   1.0000   1.0000   1.0000   1.0000   0.0000   0.0000   0.0000
     0.0000

          k =-0.1588 0.7334-0.1393 (  1076 PWs)   bands (ev):

    -5.1923  -3.5247   2.9817   3.7225   5.3358   8.1610   8.4165   9.7253
    14.6386

     occupation numbers 
     1.0000   1.0000   1.0000   1.0000   1.0000   0.0000   0.0000   0.0000
     0.0000

          k =-0.1588 0.6417-0.1115 (  1080 PWs)   bands (ev):

    -4.9314  -3.8315   2.8716   4.0074   5.3458   7.8225   8.1249   9.9064
    14.8453

     occupation numbers 
     1.0000   1.0000   1.0000   1.0000   1.0000   0.0000   0.0000   0.0000
     0.0000

          k =-0.1588 0.5501-0.0836 (  1077 PWs)   bands (ev):

    -5.4209  -3.2480   2.8841   4.3360   5.3945   7.6088   7.9432  10.0918
    13.9836

     occupation numbers 
     1.0000   1.0000   1.0000   1.0000   1.0000   0.0000   0.0000   0.0000
     0.0000

          k =-0.1588 0.4584-0.0557 (  1076 PWs)   bands (ev):

    -6.0150  -2.4348   3.0365   4.6302   5.4080   7.5528   7.9881  10.2227
    13.1805

     occupation numbers 
     1.0000   1.0000   1.0000   1.0000   1.0000   0.0000   0.0000   0.0000
     0.0000

          k =-0.1588 0.3667-0.0279 (  1078 PWs)   bands (ev):

    -6.5339  -1.6098   3.3391   4.8286   5.3042   7.7165   8.2964  10.2186
    12.5002

     occupation numbers 
     1.0000   1.0000   1.0000   1.0000   1.0000   0.0000   0.0000   0.0000
     0.0000

          k =-0.1588 0.2750 0.0000 (  1083 PWs)   bands (ev):

    -6.9450  -0.8645   3.7866   4.8919   5.1195   8.1120   8.7477   9.9837
    12.2658

     occupation numbers 
     1.0000   1.0000   1.0000   1.0000   1.0000   0.0000   0.0000   0.0000
     0.0000

          k =-0.2382-0.1375 0.1672 (  1082 PWs)   bands (ev):

    -6.9747  -0.7048   3.2925   4.1368   5.5313   8.4666   9.2552  10.7217
    12.7509

     occupation numbers 
     1.0000   1.0000   1.0000   1.0000   1.0000   0.0000   0.0000   0.0000
     0.0000

          k =-0.2382-0.2292 0.1950 (  1078 PWs)   bands (ev):

    -6.6934  -1.1359   2.9903   3.8394   5.1124   8.9316   9.4312  10.7144
    12.4821

     occupation numbers 
     1.0000   1.0000   1.0000   1.0000   1.0000   0.0000   0.0000   0.0000
     0.0000

          k =-0.2382-0.3209 0.2229 (  1076 PWs)   bands (ev):

    -6.2977  -1.7412   2.7590   3.4759   4.8242   9.4624   9.7669  10.3557
    12.0938

     occupation numbers 
     1.0000   1.0000   1.0000   1.0000   1.0000   0.0000   0.0000   0.0000
     0.0000

          k =-0.2382-0.4126 0.2508 (  1069 PWs)   bands (ev):

    -5.7998  -2.4580   2.5004   3.3085   4.6607   9.5894   9.8652  10.2583
    12.2265

     occupation numbers 
     1.0000   1.0000   1.0000   1.0000   1.0000   0.0000   0.0000   0.0000
     0.0000

          k =-0.2382 0.7793-0.1115 (  1070 PWs)   bands (ev):

    -5.2279  -3.2068   2.2315   3.4163   4.6040   9.0828   9.5744  10.6560
    13.0886

     occupation numbers 
     1.0000   1.0000   1.0000   1.0000   1.0000   0.0000   0.0000   0.0000
     0.0000

          k =-0.2382 0.6876-0.0836 (  1079 PWs)   bands (ev):

    -4.7195  -3.8130   2.0707   3.7067   4.6470   8.5864   9.1048  10.9618
    14.2968

     occupation numbers 
     1.0000   1.0000   1.0000   1.0000   1.0000   0.0000   0.0000   0.0000
     0.0000

          k =-0.2382 0.5959-0.0557 (  1078 PWs)   bands (ev):

    -4.9526  -3.5841   2.0786   4.1120   4.7698   8.2023   8.5910  11.1221
    14.2165

     occupation numbers 
     1.0000   1.0000   1.0000   1.0000   1.0000   0.0000   0.0000   0.0000
     0.0000

          k =-0.2382 0.5042-0.0279 (  1071 PWs)   bands (ev):

    -5.5426  -2.9133   2.2865   4.5625   4.9269   7.9376   8.1617  11.1062
    13.2880

     occupation numbers 
     1.0000   1.0000   1.0000   1.0000   1.0000   0.0000   0.0000   0.0000
     0.0000

          k =-0.2382 0.4126 0.0000 (  1081 PWs)   bands (ev):

    -6.0868  -2.2286   2.7106   4.8808   5.1029   7.7066   8.0770  10.8089
    12.6304

     occupation numbers 
     1.0000   1.0000   1.0000   1.0000   1.0000   0.0000   0.0000   0.0000
     0.0000

          k =-0.3176-0.1834 0.2229 (  1080 PWs)   bands (ev):

    -6.4749  -1.3437   2.6057   3.7208   4.4985   8.9505   9.9144  11.1893
    12.8931

     occupation numbers 
     1.0000   1.0000   1.0000   1.0000   1.0000   0.0000   0.0000   0.0000
     0.0000

          k =-0.3176-0.2750 0.2508 (  1078 PWs)   bands (ev):

    -6.1472  -1.7428   2.2983   3.4310   4.1481   9.1075  10.5979  11.1619
    12.7001

     occupation numbers 
     1.0000   1.0000   1.0000   1.0000   1.0000   0.0000   0.0000   0.0000
     0.0000

          k =-0.3176-0.3667 0.2786 (  1072 PWs)   bands (ev):

    -5.7219  -2.2882   1.9906   3.1775   4.0113   9.6358  10.7120  11.2197
    12.2682

     occupation numbers 
     1.0000   1.0000   1.0000   1.0000   1.0000   0.0000   0.0000   0.0000
     0.0000

          k =-0.3176 0.8251-0.0836 (  1073 PWs)   bands (ev):

    -5.2184  -2.9251   1.6788   3.1931   3.9685   9.9990  10.3004  11.5825
    12.2103

     occupation numbers 
     1.0000   1.0000   1.0000   1.0000   1.0000   0.0000   0.0000   0.0000
     0.0000

          k =-0.3176 0.7334-0.0557 (  1075 PWs)   bands (ev):

    -4.6750  -3.5888   1.4833   3.4383   4.0159   9.5029   9.9703  12.0173
    12.8660

     occupation numbers 
     1.0000   1.0000   1.0000   1.0000   1.0000   0.0000   0.0000   0.0000
     0.0000

          k =-0.3176 0.6417-0.0279 (  1074 PWs)   bands (ev):

    -4.4309  -3.9261   1.4961   3.8451   4.1547   8.9746   9.3009  12.1274
    14.0597

     occupation numbers 
     1.0000   1.0000   1.0000   1.0000   1.0000   0.0000   0.0000   0.0000
     0.0000

          k =-0.3176 0.5501 0.0000 (  1077 PWs)   bands (ev):

    -4.9858  -3.4355   1.7613   4.3550   4.3681   8.5021   8.5871  11.8324
    13.7170

     occupation numbers 
     1.0000   1.0000   1.0000   1.0000   1.0000   0.0000   0.0000   0.0000
     0.0000

          k =-0.3970-0.2292 0.2786 (  1070 PWs)   bands (ev):

    -5.8982  -1.9387   1.9574   3.3933   3.6271   8.7731  11.4679  11.6206
    13.1904

     occupation numbers 
     1.0000   1.0000   1.0000   1.0000   1.0000   0.0000   0.0000   0.0000
     0.0000

          k =-0.3970-0.3209 0.3065 (  1065 PWs)   bands (ev):

    -5.5659  -2.2923   1.6651   3.1511   3.4937   8.9408  11.5457  12.2008
    13.0134

     occupation numbers 
     1.0000   1.0000   1.0000   1.0000   1.0000   0.0000   0.0000   0.0000
     0.0000

          k =-0.3970 0.8709-0.0557 (  1067 PWs)   bands (ev):

    -5.1734  -2.7520   1.3748   3.0767   3.4725   9.5554  11.0905  12.4322
    12.7588

     occupation numbers 
     1.0000   1.0000   1.0000   1.0000   1.0000   0.0000   0.0000   0.0000
     0.0000

          k =-0.3970 0.7793-0.0279 (  1068 PWs)   bands (ev):

    -4.7531  -3.2776   1.1754   3.2574   3.5096  10.2016  10.4806  12.0241
    13.0092

     occupation numbers 
     1.0000   1.0000   1.0000   1.0000   1.0000   0.0000   0.0000   0.0000
     0.0000

          k =-0.3970 0.6876 0.0000 (  1073 PWs)   bands (ev):

    -4.3476  -3.8298   1.1939   3.6187   3.6481   9.7559   9.9925  12.7344
    12.8289

     occupation numbers 
     1.0000   1.0000   1.0000   1.0000   1.0000   0.0000   0.0000   0.0000
     0.0000

          k =-0.4764-0.2750 0.3344 (  1064 PWs)   bands (ev):

    -5.3544  -2.4496   1.4567   3.1273   3.1865   8.6122  11.9430  12.9575
    13.4877

     occupation numbers 
     1.0000   1.0000   1.0000   1.0000   1.0000   0.0000   0.0000   0.0000
     0.0000

          k =-0.4764 0.9168-0.0279 (  1065 PWs)   bands (ev):

    -5.1218  -2.6929   1.2766   3.0261   3.1718   8.8343  11.7959  13.2205
    13.4418

     occupation numbers 
     1.0000   1.0000   1.0000   1.0000   1.0000   0.0000   0.0000   0.0000
     0.0000

          k =-0.4764 0.8251 0.0000 (  1066 PWs)   bands (ev):

    -4.9095  -2.9728   1.1407   3.1465   3.1957   9.5180  11.2463  12.5182
    13.4947

     occupation numbers 
     1.0000   1.0000   1.0000   1.0000   1.0000   0.0000   0.0000   0.0000
     0.0000

          k = 0.5558 0.3209-0.3901 (  1064 PWs)   bands (ev):

    -5.0989  -2.6864   1.2663   2.9707   3.1160   8.5527  12.0660  13.6049
    13.6818

     occupation numbers 
     1.0000   1.0000   1.0000   1.0000   1.0000   0.0000   0.0000   0.0000
     0.0000

          k = 0.0000 0.0000 0.0836 (  1084 PWs)   bands (ev):

    -7.6223   0.5485   4.7165   5.1014   5.1014   8.5902   9.6493   9.6493
    14.0564

     occupation numbers 
     1.0000   1.0000   1.0000   1.0000   1.0000   0.0000   0.0000   0.0000
     0.0000

          k = 0.0000-0.0917 0.1115 (  1084 PWs)   bands (ev):

    -7.5308   0.2489   4.4516   5.1402   5.3113   8.6573   9.3574   9.7079
    13.6245

     occupation numbers 
     1.0000   1.0000   1.0000   1.0000   1.0000   0.0000   0.0000   0.0000
     0.0000

          k = 0.0000-0.1834 0.1393 (  1073 PWs)   bands (ev):

    -7.3110  -0.2895   3.9509   5.0516   5.7031   8.4360   9.0797   9.8821
    12.9590

     occupation numbers 
     1.0000   1.0000   1.0000   1.0000   1.0000   0.0000   0.0000   0.0000
     0.0000

          k = 0.0000-0.2750 0.1672 (  1069 PWs)   bands (ev):

    -6.9663  -1.0190   3.5739   4.8706   6.0718   7.9068   8.8213   9.8390
    12.9514

     occupation numbers 
     1.0000   1.0000   1.0000   1.0000   1.0000   0.0000   0.0000   0.0000
     0.0000

          k = 0.0000-0.3667 0.1950 (  1078 PWs)   bands (ev):

    -6.5044  -1.8705   3.3972   4.6511   6.4018   7.3204   8.6089   9.3210
    13.7348

     occupation numbers 
     1.0000   1.0000   1.0000   1.0000   1.0000   0.0000   0.0000   0.0000
     0.0000

          k = 0.0000-0.4584 0.2229 (  1076 PWs)   bands (ev):

    -5.9431  -2.7537   3.4101   4.4405   6.6640   6.8140   8.4801   8.6794
    14.8240

     occupation numbers 
     1.0000   1.0000   1.0000   1.0000   1.0150   1.0786   0.0000   0.0000
     0.0000

          k = 0.0000 0.7334-0.1393 (  1077 PWs)   bands (ev):

    -5.3481  -3.5460   3.5752   4.2718   6.2642   7.0271   8.1199   8.4623
    15.6258

     occupation numbers 
     1.0000   1.0000   1.0000   1.0000   1.0000   0.2302   0.0000   0.0000
     0.0000

          k = 0.0000 0.6417-0.1115 (  1084 PWs)   bands (ev):

    -5.1077  -3.8266   3.8469   4.1664   5.8420   7.2963   7.7712   8.5671
    14.5074

     occupation numbers 
     1.0000   1.0000   1.0000   1.0000   1.0000   0.0001   0.0000   0.0000
     0.0000

          k = 0.0000 0.5501-0.0836 (  1077 PWs)   bands (ev):

    -5.5876  -3.2193   4.1365   4.1669   5.4694   7.3497   7.8900   8.7921
    13.6004

     occupation numbers 
     1.0000   1.0000   1.0000   1.0000   1.0000   0.0000   0.0000   0.0000
     0.0000

          k = 0.0000 0.4584-0.0557 (  1074 PWs)   bands (ev):

    -6.1836  -2.3382   4.1866   4.4614   5.1388   7.4358   8.2723   9.1187
    13.0036

     occupation numbers 
     1.0000   1.0000   1.0000   1.0000   1.0000   0.0000   0.0000   0.0000
     0.0000

          k = 0.0000 0.3667-0.0279 (  1072 PWs)   bands (ev):

    -6.7072  -1.4059   4.3132   4.6119   4.9246   7.7558   8.6904   9.5026
    12.7379

     occupation numbers 
     1.0000   1.0000   1.0000   1.0000   1.0000   0.0000   0.0000   0.0000
     0.0000

          k = 0.0000 0.2750 0.0000 (  1074 PWs)   bands (ev):

    -7.1223  -0.5274   4.4711   4.5027   5.0132   8.2600   9.0145   9.8515
    12.7193

     occupation numbers 
     1.0000   1.0000   1.0000   1.0000   1.0000   0.0000   0.0000   0.0000
     0.0000

          k = 0.0000 0.1834 0.0279 (  1080 PWs)   bands (ev):

    -7.4164   0.1690   4.3722   4.7285   5.1589   8.8203   9.0402  10.0171
    12.8328

     occupation numbers 
     1.0000   1.0000   1.0000   1.0000   1.0000   0.0000   0.0000   0.0000
     0.0000

          k =-0.0794-0.0458 0.1393 (  1074 PWs)   bands (ev):

    -7.4918   0.0745   4.4654   4.8760   5.6907   8.5647   9.1384   9.8471
    13.4954

     occupation numbers 
     1.0000   1.0000   1.0000   1.0000   1.0000   0.0000   0.0000   0.0000
     0.0000

          k =-0.0794-0.1375 0.1672 (  1074 PWs)   bands (ev):

    -7.3247  -0.3084   3.9563   4.8064   6.0706   8.2461   9.1467  10.0073
    13.1385

     occupation numbers 
     1.0000   1.0000   1.0000   1.0000   1.0000   0.0000   0.0000   0.0000
     0.0000

          k =-0.0794-0.2292 0.1950 (  1073 PWs)   bands (ev):

    -7.0323  -0.8759   3.4365   4.6515   6.3197   7.9155   9.0826  10.2055
    12.6945

     occupation numbers 
     1.0000   1.0000   1.0000   1.0000   1.0000   0.0000   0.0000   0.0000
     0.0000

          k =-0.0794-0.3209 0.2229 (  1073 PWs)   bands (ev):

    -6.6205  -1.6021   3.1144   4.3844   6.4086   7.6550   8.9570  10.0602
    12.8510

     occupation numbers 
     1.0000   1.0000   1.0000   1.0000   1.0000   0.0000   0.0000   0.0000
     0.0000

          k =-0.0794-0.4126 0.2508 (  1071 PWs)   bands (ev):

    -6.1020  -2.4209   3.0215   4.0859   6.3487   7.4595   8.9244   9.5192
    13.7248

     occupation numbers 
     1.0000   1.0000   1.0000   1.0000   1.0000   0.0000   0.0000   0.0000
     0.0000

          k =-0.0794 0.7793-0.1115 (  1075 PWs)   bands (ev):

    -5.5136  -3.2303   3.1300   3.8212   6.1657   7.3731   8.8799   9.0429
    14.9203

     occupation numbers 
     1.0000   1.0000   1.0000   1.0000   1.0000   0.0000   0.0000   0.0000
     0.0000

          k =-0.0794 0.6876-0.0836 (  1083 PWs)   bands (ev):

    -5.0471  -3.7902   3.3946   3.6349   5.8967   7.4297   8.3865   9.1869
    14.5398

     occupation numbers 
     1.0000   1.0000   1.0000   1.0000   1.0000   0.0000   0.0000   0.0000
     0.0000

          k =-0.0794 0.5959-0.0557 (  1084 PWs)   bands (ev):

    -5.2903  -3.4901   3.5144   3.8057   5.5850   7.5872   8.0583   9.3952
    13.6354

     occupation numbers 
     1.0000   1.0000   1.0000   1.0000   1.0000   0.0000   0.0000   0.0000
     0.0000

          k =-0.0794 0.5042-0.0279 (  1079 PWs)   bands (ev):

    -5.8744  -2.6996   3.5250   4.2515   5.2626   7.6434   8.1325   9.6157
    13.0317

     occupation numbers 
     1.0000   1.0000   1.0000   1.0000   1.0000   0.0000   0.0000   0.0000
     0.0000

          k =-0.0794 0.4126 0.0000 (  1081 PWs)   bands (ev):

    -6.4273  -1.8177   3.6380   4.6330   5.0135   7.6918   8.5193   9.8162
    12.6995

     occupation numbers 
     1.0000   1.0000   1.0000   1.0000   1.0000   0.0000   0.0000   0.0000
     0.0000

          k =-0.0794 0.3209 0.0279 (  1080 PWs)   bands (ev):

    -6.8835  -0.9690   3.8462   4.5746   5.1842   7.9337   8.9579   9.9559
    12.4898

     occupation numbers 
     1.0000   1.0000   1.0000   1.0000   1.0000   0.0000   0.0000   0.0000
     0.0000

          k =-0.0794 0.2292 0.0557 (  1077 PWs)   bands (ev):

    -7.2241  -0.2714   4.0911   4.5107   5.4068   8.3385   9.2194   9.9911
    12.4962

     occupation numbers 
     1.0000   1.0000   1.0000   1.0000   1.0000   0.0000   0.0000   0.0000
     0.0000

[...]
     0.0000

          k = 0.5558 0.3209-0.1393 (  1076 PWs)   bands (ev):

    -5.1281  -3.1454   1.9606   3.4808   3.9074   8.8514  10.4273  11.1714
    12.5440

     occupation numbers 
     1.0000   1.0000   1.0000   1.0000   1.0000   0.0000   0.0000   0.0000
     0.0000

          k = 0.0000 0.0000 0.3344 (  1069 PWs)   bands (ev):

    -7.0656  -1.5800   5.2209   5.2209   5.9716   8.5027   8.5027   8.7151
    13.6915

     occupation numbers 
     1.0000   1.0000   1.0000   1.0000   1.0000   0.0000   0.0000   0.0000
     0.0000

          k = 0.0000-0.0917 0.3622 (  1066 PWs)   bands (ev):

    -6.9213  -1.8087   4.2842   5.3507   6.7048   7.9179   8.1556   9.5525
    13.8854

     occupation numbers 
     1.0000   1.0000   1.0000   1.0000   1.0345   0.0000   0.0000   0.0000
     0.0000

          k = 0.0000-0.1834 0.3901 (  1066 PWs)   bands (ev):

    -6.6626  -2.0307   3.1967   5.1312   7.0462   7.6559   8.2571  10.4884
    14.1919

     occupation numbers 
     1.0000   1.0000   1.0000   1.0000   0.1637   0.0000   0.0000   0.0000
     0.0000

          k = 0.0000 1.0085 0.0279 (  1063 PWs)   bands (ev):

    -6.2988  -2.2850   2.2988   4.7142   6.3266   8.2760   8.6311  11.3639
    14.3195

     occupation numbers 
     1.0000   1.0000   1.0000   1.0000   1.0000   0.0000   0.0000   0.0000
     0.0000

          k = 0.0000 0.9168 0.0557 (  1070 PWs)   bands (ev):

    -5.8490  -2.6260   1.7113   4.2780   5.6245   8.6956   9.0833  11.9557
    14.4490

     occupation numbers 
     1.0000   1.0000   1.0000   1.0000   1.0000   0.0000   0.0000   0.0000
     0.0000

          k = 0.0000 0.8251 0.0836 (  1074 PWs)   bands (ev):

    -5.3638  -3.0471   1.4928   3.9072   4.9840   8.9076   9.5376  11.9431
    13.6027

     occupation numbers 
     1.0000   1.0000   1.0000   1.0000   1.0000   0.0000   0.0000   0.0000
     0.0000

          k = 0.0000 0.7334 0.1115 (  1083 PWs)   bands (ev):

    -5.0143  -3.3484   1.6079   3.6364   4.4070   8.9408   9.9842  11.5907
    12.8611

     occupation numbers 
     1.0000   1.0000   1.0000   1.0000   1.0000   0.0000   0.0000   0.0000
     0.0000

          k =-0.0794-0.0458 0.3901 (  1076 PWs)   bands (ev):

    -6.8357  -2.0117   4.5788   4.9018   6.7671   7.6492   8.7917   9.1952
    13.7803

     occupation numbers 
     1.0000   1.0000   1.0000   1.0000   1.0749   0.0000   0.0000   0.0000
     0.0000

          k =-0.0794-0.1375 0.4179 (  1070 PWs)   bands (ev):

    -6.6382  -2.1867   3.6205   4.8053   6.8410   7.7071   8.8276   9.9949
    13.8170

     occupation numbers 
     1.0000   1.0000   1.0000   1.0000   1.0479   0.0000   0.0000   0.0000
     0.0000

          k =-0.0794 1.0543 0.0557 (  1071 PWs)   bands (ev):

    -6.3365  -2.3519   2.6348   4.3615   6.8001   7.6497   9.3728  10.8993
    14.0569

     occupation numbers 
     1.0000   1.0000   1.0000   1.0000   1.0830   0.0000   0.0000   0.0000
     0.0000

          k =-0.0794 0.9626 0.0836 (  1073 PWs)   bands (ev):

    -5.9453  -2.5572   1.8679   3.8398   6.2457   8.0636   9.8882  11.7537
    14.2659

     occupation numbers 
     1.0000   1.0000   1.0000   1.0000   1.0000   0.0000   0.0000   0.0000
     0.0000

          k =-0.0794 0.8709 0.1115 (  1068 PWs)   bands (ev):

    -5.4979  -2.8496   1.4338   3.3915   5.6083   8.4936  10.2112  12.3185
    13.8852

     occupation numbers 
     1.0000   1.0000   1.0000   1.0000   1.0000   0.0000   0.0000   0.0000
     0.0000

          k =-0.0794 0.7793 0.1393 (  1072 PWs)   bands (ev):

    -5.0881  -3.1656   1.3630   3.0683   4.9849   8.8037  10.3485  12.3139
    13.2361

     occupation numbers 
     1.0000   1.0000   1.0000   1.0000   1.0000   0.0000   0.0000   0.0000
     0.0000

          k =-0.1588-0.0917 0.4458 (  1074 PWs)   bands (ev):

    -6.5063  -2.3213   3.4567   4.4989   6.0663   8.6639   9.2561   9.8766
    13.5078

     occupation numbers 
     1.0000   1.0000   1.0000   1.0000   1.0000   0.0000   0.0000   0.0000
     0.0000

          k =-0.1588 1.1001 0.0836 (  1071 PWs)   bands (ev):

    -6.2728  -2.4316   2.7476   4.0343   6.0901   8.4346  10.0791  10.4285
    13.5742

     occupation numbers 
     1.0000   1.0000   1.0000   1.0000   1.0000   0.0000   0.0000   0.0000
     0.0000

          k =-0.1588 1.0085 0.1115 (  1070 PWs)   bands (ev):

    -5.9493  -2.5500   2.0551   3.3324   6.4274   7.9940  10.8159  11.1214
    13.9262

     occupation numbers 
     1.0000   1.0000   1.0000   1.0000   1.0000   0.0000   0.0000   0.0000
     0.0000

          k =-0.1588 0.9168 0.1393 (  1068 PWs)   bands (ev):

    -5.5575  -2.7331   1.5606   2.7448   6.2923   8.0225  11.0794  11.9269
    14.2579

     occupation numbers 
     1.0000   1.0000   1.0000   1.0000   1.0000   0.0000   0.0000   0.0000
     0.0000

          k =-0.1588 0.8251 0.1672 (  1061 PWs)   bands (ev):

    -5.1471  -3.0026   1.3518   2.3669   5.7171   8.3975  10.9946  12.5242
    13.8375

     occupation numbers 
     1.0000   1.0000   1.0000   1.0000   1.0000   0.0000   0.0000   0.0000
     0.0000

          k = 0.8734 0.5042-0.2786 (  1068 PWs)   bands (ev):

    -6.1124  -2.5032   2.3202   4.1249   5.3118   9.3714   9.7486  11.0347
    13.3488

     occupation numbers 
     1.0000   1.0000   1.0000   1.0000   1.0000   0.0000   0.0000   0.0000
     0.0000

          k = 0.8734 0.4126-0.2508 (  1067 PWs)   bands (ev):

    -5.8637  -2.5811   1.8314   3.5004   5.5449   8.8890  10.4566  11.6623
    13.5157

     occupation numbers 
     1.0000   1.0000   1.0000   1.0000   1.0000   0.0000   0.0000   0.0000
     0.0000

          k = 0.8734 0.3209-0.2229 (  1064 PWs)   bands (ev):

    -5.5408  -2.7109   1.5212   2.6611   6.0269   8.3448  11.1050  12.0042
    13.9388

     occupation numbers 
     1.0000   1.0000   1.0000   1.0000   1.0000   0.0000   0.0000   0.0000
     0.0000

          k = 0.8734 0.2292-0.1950 (  1060 PWs)   bands (ev):

    -5.1690  -2.9374   1.4614   2.0006   6.0614   8.1609  11.7338  11.9594
    14.1509

     occupation numbers 
     1.0000   1.0000   1.0000   1.0000   1.0000   0.0000   0.0000   0.0000
     0.0000

          k = 0.7940 0.4584-0.2229 (  1062 PWs)   bands (ev):

    -5.6945  -2.6506   1.4606   3.8409   4.8000   9.4452  10.1004  12.3408
    13.2891

     occupation numbers 
     1.0000   1.0000   1.0000   1.0000   1.0000   0.0000   0.0000   0.0000
     0.0000

          k = 0.7940 0.3667-0.1950 (  1069 PWs)   bands (ev):

    -5.4510  -2.7832   1.2716   3.1925   5.1827   8.9921  10.4804  12.6715
    13.4448

     occupation numbers 
     1.0000   1.0000   1.0000   1.0000   1.0000   0.0000   0.0000   0.0000
     0.0000

          k = 0.7146 0.4126-0.1672 (  1074 PWs)   bands (ev):

    -5.2956  -2.9428   1.1898   3.6750   4.5056   9.2442  10.1752  12.7652
    13.1347

     occupation numbers 
     1.0000   1.0000   1.0000   1.0000   1.0000   0.0000   0.0000   0.0000
     0.0000

          k = 0.0000 0.0000 0.4179 (  1087 PWs)   bands (ev):

    -6.8082  -2.2235   5.2773   5.2773   6.2025   8.1500   8.1500   8.6850
    14.1384

     occupation numbers 
     1.0000   1.0000   1.0000   1.0000   1.0000   0.0000   0.0000   0.0000
     0.0000

          k = 0.0000-0.0917 0.4458 (  1069 PWs)   bands (ev):

    -6.6715  -2.3839   4.3253   5.3185   6.9151   7.6656   7.9873   9.4593
    14.3015

     occupation numbers 
     1.0000   1.0000   1.0000   1.0000   0.7907   0.0000   0.0000   0.0000
     0.0000

          k = 0.0000 1.1001 0.0836 (  1069 PWs)   bands (ev):

    -6.4317  -2.4954   3.1750   4.9757   6.6664   8.0652   8.3408  10.4734
    14.5263

     occupation numbers 
     1.0000   1.0000   1.0000   1.0000   1.0162   0.0000   0.0000   0.0000
     0.0000

          k = 0.0000 1.0085 0.1115 (  1067 PWs)   bands (ev):

    -6.1007  -2.5915   2.1924   4.4956   5.9004   8.7965   8.9341  11.4576
    14.5020

     occupation numbers 
     1.0000   1.0000   1.0000   1.0000   1.0000   0.0000   0.0000   0.0000
     0.0000

          k = 0.0000 0.9168 0.1393 (  1069 PWs)   bands (ev):

    -5.7028  -2.7313   1.5005   4.0413   5.1731   9.2013   9.5720  12.3295
    13.7787

     occupation numbers 
     1.0000   1.0000   1.0000   1.0000   1.0000   0.0000   0.0000   0.0000
     0.0000

          k =-0.0794-0.0458 0.4737 (  1070 PWs)   bands (ev):

    -6.6002  -2.5293   4.5508   4.9910   6.8255   7.5843   8.4290   9.2233
    14.2627

     occupation numbers 
     1.0000   1.0000   1.0000   1.0000   1.0690   0.0000   0.0000   0.0000
     0.0000

          k =-0.0794 1.1460 0.1115 (  1069 PWs)   bands (ev):

    -6.4286  -2.6107   3.6149   4.7310   6.9297   7.5152   8.9031   9.9667
    14.2626

     occupation numbers 
     1.0000   1.0000   1.0000   1.0000   0.7150   0.0000   0.0000   0.0000
     0.0000

          k =-0.0794 1.0543 0.1393 (  1070 PWs)   bands (ev):

    -6.1658  -2.6451   2.6088   4.1777   6.5902   7.8123   9.7134  10.8807
    14.3753

     occupation numbers 
     1.0000   1.0000   1.0000   1.0000   1.0021   0.0000   0.0000   0.0000
     0.0000

          k =-0.0794 0.9626 0.1672 (  1068 PWs)   bands (ev):

    -5.8284  -2.6810   1.7837   3.6300   5.8881   8.4772  10.2609  11.8318
    13.9933

     occupation numbers 
     1.0000   1.0000   1.0000   1.0000   1.0000   0.0000   0.0000   0.0000
     0.0000

          k = 0.9527 0.5501-0.2508 (  1068 PWs)   bands (ev):

    -6.3295  -2.6702   3.3348   4.6234   6.1527   8.5739   8.8791  10.1525
    14.0207

     occupation numbers 
     1.0000   1.0000   1.0000   1.0000   1.0000   0.0000   0.0000   0.0000
     0.0000

          k = 0.9527 0.4584-0.2229 (  1065 PWs)   bands (ev):

    -6.1401  -2.6775   2.6556   4.0593   6.3229   8.1047   9.9642  10.7147
    14.0583

     occupation numbers 
     1.0000   1.0000   1.0000   1.0000   1.0000   0.0000   0.0000   0.0000
     0.0000

          k = 0.9527 0.3667-0.1950 (  1068 PWs)   bands (ev):

    -5.8708  -2.6691   2.0088   3.2715   6.5608   7.8387  11.0683  11.0922
    14.2685

     occupation numbers 
     1.0000   1.0000   1.0000   1.0000   1.0008   0.0000   0.0000   0.0000
     0.0000

          k = 0.8734 0.5042-0.1950 (  1064 PWs)   bands (ev):

    -6.0259  -2.6806   2.2098   4.2878   5.5572   9.1644   9.3212  11.3541
    13.8791

     occupation numbers 
     1.0000   1.0000   1.0000   1.0000   1.0000   0.0000   0.0000   0.0000
     0.0000

          k = 0.0000 0.0000 0.5015 (  1063 PWs)   bands (ev):

    -6.5949  -2.6772   5.3250   5.3250   6.3297   7.9128   7.9128   8.6395
    14.6862

     occupation numbers 
     1.0000   1.0000   1.0000   1.0000   1.0000   0.0000   0.0000   0.0000
     0.0000

          k = 0.0000 1.1918 0.1393 (  1067 PWs)   bands (ev):

    -6.4925  -2.7439   4.3991   5.2289   6.9433   7.5599   7.9908   9.3539
    14.7282

     occupation numbers 
     1.0000   1.0000   1.0000   1.0000   0.6410   0.0000   0.0000   0.0000
     0.0000

          k = 0.0000 1.1001 0.1672 (  1063 PWs)   bands (ev):

    -6.2991  -2.7340   3.2301   4.7917   6.3592   8.3705   8.5621  10.3567
    14.5233

     occupation numbers 
     1.0000   1.0000   1.0000   1.0000   1.0000   0.0000   0.0000   0.0000
     0.0000

          k = 1.0321 0.5959-0.2229 (  1067 PWs)   bands (ev):

    -6.4635  -2.7982   4.4836   5.1085   6.8753   7.5630   8.1494   9.2700
    14.7267

     occupation numbers 
     1.0000   1.0000   1.0000   1.0000   0.9605   0.0000   0.0000   0.0000
     0.0000

          k = 1.0321 0.5042-0.1950 (  1064 PWs)   bands (ev):

    -6.3440  -2.7687   3.6177   4.6968   7.0030   7.3950   8.9450   9.9492
    14.5524

     occupation numbers 
     1.0000   1.0000   1.0000   1.0000   0.3276   0.0000   0.0000   0.0000
     0.0000

          k = 0.0000 0.0000-0.5851 (  1062 PWs)   bands (ev):

    -6.5087  -2.8449   5.3441   5.3441   6.3703   7.8287   7.8287   8.6186
    14.9676

     occupation numbers 
     1.0000   1.0000   1.0000   1.0000   1.0000   0.0000   0.0000   0.0000
     0.0000

     the Fermi energy is     6.9878 ev

!    total energy              =     -36.37821983 Ry
     Harris-Foulkes estimate   =     -36.37821983 Ry
     estimated scf accuracy    <          3.1E-12 Ry

     convergence has been achieved in   5 iterations

     Forces acting on atoms (cartesian axes, Ry/au):

     atom    1 type  1   force =     0.00000000    0.00000000    0.00008178
     atom    2 type  1   force =     0.00000000    0.00000000   -0.00008178
     The non-local contrib.  to forces
     atom    1 type  1   force =    -0.00000000    0.00000000   -0.26575341
     atom    2 type  1   force =     0.00000000    0.00000000    0.26575341
     The ionic contribution  to forces
     atom    1 type  1   force =    -0.00000000    0.00000000    0.84023611
     atom    2 type  1   force =    -0.00000000   -0.00000000   -0.84023611
     The local contribution  to forces
     atom    1 type  1   force =     0.00000000    0.00000000   -0.59880299
     atom    2 type  1   force =    -0.00000000    0.00000000    0.59880299
     The core correction contribution to forces
     atom    1 type  1   force =    -0.00000000    0.00000000    0.02255529
     atom    2 type  1   force =     0.00000000    0.00000000   -0.02255529
     The Hubbard contrib.    to forces
     atom    1 type  1   force =     0.00000000    0.00000000    0.00000000
     atom    2 type  1   force =     0.00000000    0.00000000    0.00000000
     The SCF correction term to forces
     atom    1 type  1   force =     0.00000000   -0.00000000    0.00000011
     atom    2 type  1   force =    -0.00000000    0.00000000   -0.00000011

     Total force =     0.000116     Total SCF correction =     0.000000


     Computing stress (Cartesian axis) and pressure

          total   stress  (Ry/bohr**3)                   (kbar)     P=   -1.76
  -0.00000967   0.00000000   0.00000000         -1.42      0.00      0.00
  -0.00000000  -0.00000967  -0.00000000         -0.00     -1.42     -0.00
   0.00000000  -0.00000000  -0.00001652          0.00     -0.00     -2.43

     kinetic stress (kbar)   2927.73      0.00     -0.00
                                0.00   2927.73      0.00
                               -0.00      0.00   3038.25

     local   stress (kbar)    867.66     -0.00      0.00
                               -0.00    867.66     -0.00
                                0.00     -0.00   1614.73

     nonloc. stress (kbar)   1323.60      0.00     -0.00
                                0.00   1323.60      0.00
                               -0.00      0.00   1319.04

     hartree stress (kbar)    311.36      0.00     -0.00
                                0.00    311.36      0.00
                               -0.00      0.00    103.72

     exc-cor stress (kbar)   4336.10     -0.00      0.00
                               -0.00   4336.10     -0.00
                                0.00     -0.00   4335.89

     corecor stress (kbar)  -5807.47      0.00     -0.00
                                0.00  -5807.47      0.00
                               -0.00      0.00  -5810.26

     ewald   stress (kbar)  -3960.40     -0.00     -0.00
                               -0.00  -3960.40      0.00
                               -0.00      0.00  -4603.80

     hubbard stress (kbar)      0.00      0.00      0.00
                                0.00      0.00      0.00
                                0.00      0.00      0.00

     london  stress (kbar)      0.00      0.00      0.00
                                0.00      0.00      0.00
                                0.00      0.00      0.00

     DFT-D3  stress (kbar)      0.00      0.00      0.00
                                0.00      0.00      0.00
                                0.00      0.00      0.00

     XDM     stress (kbar)      0.00      0.00      0.00
                                0.00      0.00      0.00
                                0.00      0.00      0.00

     dft-nl  stress (kbar)      0.00      0.00      0.00
                                0.00      0.00      0.00
                                0.00      0.00      0.00

     TS-vdW  stress (kbar)      0.00      0.00      0.00
                                0.00      0.00      0.00
                                0.00      0.00      0.00



     Damped Dynamics: convergence achieved in   5 steps

     End of damped dynamics calculation

     Final energy =     -36.3782198281 Ry

Begin final coordinates
     new unit-cell volume =    306.77484 a.u.^3 (    45.45934 Ang^3 )
     density =      5.47347 g/cm^3

CELL_PARAMETERS (angstrom)
   1.904517574   1.099573734   3.617949860
  -1.904517574   1.099573734   3.617949860
   0.000000000  -2.199147468   3.617949860

ATOMIC_POSITIONS (angstrom)
As      -0.000000000  -0.000000000   2.458417078
As       0.000000000   0.000000000   8.395432503
End final coordinates



     Writing output data file aiida.save/

     init_run     :      0.65s CPU      0.83s WALL (       1 calls)
     electrons    :     49.88s CPU     57.66s WALL (       6 calls)
     update_pot   :      0.82s CPU      0.90s WALL (       5 calls)
     forces       :      1.07s CPU      1.24s WALL (       6 calls)
     stress       :      2.48s CPU      2.81s WALL (       6 calls)

     Called by init_run:
     wfcinit      :      0.32s CPU      0.43s WALL (       1 calls)
     wfcinit:atom :      0.00s CPU      0.00s WALL (     144 calls)
     wfcinit:wfcr :      0.31s CPU      0.42s WALL (     144 calls)
     potinit      :      0.05s CPU      0.07s WALL (       1 calls)
     hinit0       :      0.27s CPU      0.30s WALL (       1 calls)

     Called by electrons:
     c_bands      :     40.76s CPU     47.34s WALL (      43 calls)
     sum_band     :      8.31s CPU      9.39s WALL (      43 calls)
     v_of_rho     :      0.65s CPU      0.70s WALL (      43 calls)
     v_h          :      0.03s CPU      0.04s WALL (      43 calls)
     v_xc         :      0.78s CPU      0.84s WALL (      55 calls)
     newd         :      0.11s CPU      0.14s WALL (      43 calls)
     mix_rho      :      0.06s CPU      0.06s WALL (      43 calls)

     Called by c_bands:
     init_us_2    :      0.70s CPU      0.79s WALL (   14256 calls)
     cegterg      :     38.81s CPU     44.87s WALL (    6192 calls)

     Called by sum_band:
     sum_band:bec :      0.03s CPU      0.03s WALL (    6192 calls)
     addusdens    :      0.10s CPU      0.10s WALL (      43 calls)

     Called by *egterg:
     h_psi        :     32.28s CPU     37.41s WALL (   17093 calls)
     s_psi        :      0.82s CPU      0.92s WALL (   17093 calls)
     g_psi        :      0.12s CPU      0.14s WALL (   10757 calls)
     cdiaghg      :      1.98s CPU      2.24s WALL (   15365 calls)
     cegterg:over :      1.62s CPU      1.91s WALL (   10757 calls)
     cegterg:upda :      0.61s CPU      0.68s WALL (   10757 calls)
     cegterg:last :      0.43s CPU      0.47s WALL (    6192 calls)

     Called by h_psi:
     h_psi:pot    :     32.22s CPU     37.34s WALL (   17093 calls)
     h_psi:calbec :      1.14s CPU      1.33s WALL (   17093 calls)
     vloc_psi     :     30.21s CPU     35.03s WALL (   17093 calls)
     add_vuspsi   :      0.82s CPU      0.92s WALL (   17093 calls)

     General routines
     calbec       :      2.07s CPU      2.45s WALL (   27605 calls)
     fft          :      0.56s CPU      0.71s WALL (     714 calls)
     ffts         :      0.04s CPU      0.07s WALL (      86 calls)
     fftw         :     34.59s CPU     39.98s WALL (  309324 calls)
     interpolate  :      0.04s CPU      0.05s WALL (      43 calls)

     Parallel routines
     fft_scatt_xy :      3.18s CPU      3.56s WALL (  310124 calls)
     fft_scatt_yz :      9.25s CPU     11.72s WALL (  310124 calls)

     PWSCF        :     57.92s CPU   1m 7.00s WALL


   This run was terminated on:  18:38:19  16Nov2018            

=------------------------------------------------------------------------------=
   JOB DONE.
=------------------------------------------------------------------------------=
